<?xml version="1.0"?>
<VTKFile type="UnstructuredGrid"  version="0.1"  >
<UnstructuredGrid>
<Piece  NumberOfPoints="961" NumberOfCells="1800">
<Points>
<DataArray  type="Float64"  NumberOfComponents="3"  format="ascii">-2 -2 0  -1.866666666666667 -2 0  -1.733333333333333 -2 0  -1.6 -2 0  -1.466666666666667 -2 0  -1.333333333333333 -2 0  -1.2 -2 0  -1.066666666666667 -2 0  -0.9333333333333333 -2 0  -0.8 -2 0  -0.6666666666666667 -2 0  -0.5333333333333334 -2 0  -0.3999999999999999 -2 0  -0.2666666666666666 -2 0  -0.1333333333333333 -2 0  0 -2 0  0.1333333333333333 -2 0  0.2666666666666666 -2 0  0.3999999999999999 -2 0  0.5333333333333332 -2 0  0.6666666666666665 -2 0  0.7999999999999998 -2 0  0.9333333333333331 -2 0  1.066666666666667 -2 0  1.2 -2 0  1.333333333333333 -2 0  1.466666666666667 -2 0  1.6 -2 0  1.733333333333333 -2 0  1.866666666666667 -2 0  2 -2 0  -2 -1.866666666666667 0  -1.866666666666667 -1.866666666666667 0  -1.733333333333333 -1.866666666666667 0  -1.6 -1.866666666666667 0  -1.466666666666667 -1.866666666666667 0  -1.333333333333333 -1.866666666666667 0  -1.2 -1.866666666666667 0  -1.066666666666667 -1.866666666666667 0  -0.9333333333333333 -1.866666666666667 0  -0.8 -1.866666666666667 0  -0.6666666666666667 -1.866666666666667 0  -0.5333333333333334 -1.866666666666667 0  -0.3999999999999999 -1.866666666666667 0  -0.2666666666666666 -1.866666666666667 0  -0.1333333333333333 -1.866666666666667 0  0 -1.866666666666667 0  0.1333333333333333 -1.866666666666667 0  0.2666666666666666 -1.866666666666667 0  0.3999999999999999 -1.866666666666667 0  0.5333333333333332 -1.866666666666667 0  0.6666666666666665 -1.866666666666667 0  0.7999999999999998 -1.866666666666667 0  0.9333333333333331 -1.866666666666667 0  1.066666666666667 -1.866666666666667 0  1.2 -1.866666666666667 0  1.333333333333333 -1.866666666666667 0  1.466666666666667 -1.866666666666667 0  1.6 -1.866666666666667 0  1.733333333333333 -1.866666666666667 0  1.866666666666667 -1.866666666666667 0  2 -1.866666666666667 0  -2 -1.733333333333333 0  -1.866666666666667 -1.733333333333333 0  -1.733333333333333 -1.733333333333333 0  -1.6 -1.733333333333333 0  -1.466666666666667 -1.733333333333333 0  -1.333333333333333 -1.733333333333333 0  -1.2 -1.733333333333333 0  -1.066666666666667 -1.733333333333333 0  -0.9333333333333333 -1.733333333333333 0  -0.8 -1.733333333333333 0  -0.6666666666666667 -1.733333333333333 0  -0.5333333333333334 -1.733333333333333 0  -0.3999999999999999 -1.733333333333333 0  -0.2666666666666666 -1.733333333333333 0  -0.1333333333333333 -1.733333333333333 0  0 -1.733333333333333 0  0.1333333333333333 -1.733333333333333 0  0.2666666666666666 -1.733333333333333 0  0.3999999999999999 -1.733333333333333 0  0.5333333333333332 -1.733333333333333 0  0.6666666666666665 -1.733333333333333 0  0.7999999999999998 -1.733333333333333 0  0.9333333333333331 -1.733333333333333 0  1.066666666666667 -1.733333333333333 0  1.2 -1.733333333333333 0  1.333333333333333 -1.733333333333333 0  1.466666666666667 -1.733333333333333 0  1.6 -1.733333333333333 0  1.733333333333333 -1.733333333333333 0  1.866666666666667 -1.733333333333333 0  2 -1.733333333333333 0  -2 -1.6 0  -1.866666666666667 -1.6 0  -1.733333333333333 -1.6 0  -1.6 -1.6 0  -1.466666666666667 -1.6 0  -1.333333333333333 -1.6 0  -1.2 -1.6 0  -1.066666666666667 -1.6 0  -0.9333333333333333 -1.6 0  -0.8 -1.6 0  -0.6666666666666667 -1.6 0  -0.5333333333333334 -1.6 0  -0.3999999999999999 -1.6 0  -0.2666666666666666 -1.6 0  -0.1333333333333333 -1.6 0  0 -1.6 0  0.1333333333333333 -1.6 0  0.2666666666666666 -1.6 0  0.3999999999999999 -1.6 0  0.5333333333333332 -1.6 0  0.6666666666666665 -1.6 0  0.7999999999999998 -1.6 0  0.9333333333333331 -1.6 0  1.066666666666667 -1.6 0  1.2 -1.6 0  1.333333333333333 -1.6 0  1.466666666666667 -1.6 0  1.6 -1.6 0  1.733333333333333 -1.6 0  1.866666666666667 -1.6 0  2 -1.6 0  -2 -1.466666666666667 0  -1.866666666666667 -1.466666666666667 0  -1.733333333333333 -1.466666666666667 0  -1.6 -1.466666666666667 0  -1.466666666666667 -1.466666666666667 0  -1.333333333333333 -1.466666666666667 0  -1.2 -1.466666666666667 0  -1.066666666666667 -1.466666666666667 0  -0.9333333333333333 -1.466666666666667 0  -0.8 -1.466666666666667 0  -0.6666666666666667 -1.466666666666667 0  -0.5333333333333334 -1.466666666666667 0  -0.3999999999999999 -1.466666666666667 0  -0.2666666666666666 -1.466666666666667 0  -0.1333333333333333 -1.466666666666667 0  0 -1.466666666666667 0  0.1333333333333333 -1.466666666666667 0  0.2666666666666666 -1.466666666666667 0  0.3999999999999999 -1.466666666666667 0  0.5333333333333332 -1.466666666666667 0  0.6666666666666665 -1.466666666666667 0  0.7999999999999998 -1.466666666666667 0  0.9333333333333331 -1.466666666666667 0  1.066666666666667 -1.466666666666667 0  1.2 -1.466666666666667 0  1.333333333333333 -1.466666666666667 0  1.466666666666667 -1.466666666666667 0  1.6 -1.466666666666667 0  1.733333333333333 -1.466666666666667 0  1.866666666666667 -1.466666666666667 0  2 -1.466666666666667 0  -2 -1.333333333333333 0  -1.866666666666667 -1.333333333333333 0  -1.733333333333333 -1.333333333333333 0  -1.6 -1.333333333333333 0  -1.466666666666667 -1.333333333333333 0  -1.333333333333333 -1.333333333333333 0  -1.2 -1.333333333333333 0  -1.066666666666667 -1.333333333333333 0  -0.9333333333333333 -1.333333333333333 0  -0.8 -1.333333333333333 0  -0.6666666666666667 -1.333333333333333 0  -0.5333333333333334 -1.333333333333333 0  -0.3999999999999999 -1.333333333333333 0  -0.2666666666666666 -1.333333333333333 0  -0.1333333333333333 -1.333333333333333 0  0 -1.333333333333333 0  0.1333333333333333 -1.333333333333333 0  0.2666666666666666 -1.333333333333333 0  0.3999999999999999 -1.333333333333333 0  0.5333333333333332 -1.333333333333333 0  0.6666666666666665 -1.333333333333333 0  0.7999999999999998 -1.333333333333333 0  0.9333333333333331 -1.333333333333333 0  1.066666666666667 -1.333333333333333 0  1.2 -1.333333333333333 0  1.333333333333333 -1.333333333333333 0  1.466666666666667 -1.333333333333333 0  1.6 -1.333333333333333 0  1.733333333333333 -1.333333333333333 0  1.866666666666667 -1.333333333333333 0  2 -1.333333333333333 0  -2 -1.2 0  -1.866666666666667 -1.2 0  -1.733333333333333 -1.2 0  -1.6 -1.2 0  -1.466666666666667 -1.2 0  -1.333333333333333 -1.2 0  -1.2 -1.2 0  -1.066666666666667 -1.2 0  -0.9333333333333333 -1.2 0  -0.8 -1.2 0  -0.6666666666666667 -1.2 0  -0.5333333333333334 -1.2 0  -0.3999999999999999 -1.2 0  -0.2666666666666666 -1.2 0  -0.1333333333333333 -1.2 0  0 -1.2 0  0.1333333333333333 -1.2 0  0.2666666666666666 -1.2 0  0.3999999999999999 -1.2 0  0.5333333333333332 -1.2 0  0.6666666666666665 -1.2 0  0.7999999999999998 -1.2 0  0.9333333333333331 -1.2 0  1.066666666666667 -1.2 0  1.2 -1.2 0  1.333333333333333 -1.2 0  1.466666666666667 -1.2 0  1.6 -1.2 0  1.733333333333333 -1.2 0  1.866666666666667 -1.2 0  2 -1.2 0  -2 -1.066666666666667 0  -1.866666666666667 -1.066666666666667 0  -1.733333333333333 -1.066666666666667 0  -1.6 -1.066666666666667 0  -1.466666666666667 -1.066666666666667 0  -1.333333333333333 -1.066666666666667 0  -1.2 -1.066666666666667 0  -1.066666666666667 -1.066666666666667 0  -0.9333333333333333 -1.066666666666667 0  -0.8 -1.066666666666667 0  -0.6666666666666667 -1.066666666666667 0  -0.5333333333333334 -1.066666666666667 0  -0.3999999999999999 -1.066666666666667 0  -0.2666666666666666 -1.066666666666667 0  -0.1333333333333333 -1.066666666666667 0  0 -1.066666666666667 0  0.1333333333333333 -1.066666666666667 0  0.2666666666666666 -1.066666666666667 0  0.3999999999999999 -1.066666666666667 0  0.5333333333333332 -1.066666666666667 0  0.6666666666666665 -1.066666666666667 0  0.7999999999999998 -1.066666666666667 0  0.9333333333333331 -1.066666666666667 0  1.066666666666667 -1.066666666666667 0  1.2 -1.066666666666667 0  1.333333333333333 -1.066666666666667 0  1.466666666666667 -1.066666666666667 0  1.6 -1.066666666666667 0  1.733333333333333 -1.066666666666667 0  1.866666666666667 -1.066666666666667 0  2 -1.066666666666667 0  -2 -0.9333333333333333 0  -1.866666666666667 -0.9333333333333333 0  -1.733333333333333 -0.9333333333333333 0  -1.6 -0.9333333333333333 0  -1.466666666666667 -0.9333333333333333 0  -1.333333333333333 -0.9333333333333333 0  -1.2 -0.9333333333333333 0  -1.066666666666667 -0.9333333333333333 0  -0.9333333333333333 -0.9333333333333333 0  -0.8 -0.9333333333333333 0  -0.6666666666666667 -0.9333333333333333 0  -0.5333333333333334 -0.9333333333333333 0  -0.3999999999999999 -0.9333333333333333 0  -0.2666666666666666 -0.9333333333333333 0  -0.1333333333333333 -0.9333333333333333 0  0 -0.9333333333333333 0  0.1333333333333333 -0.9333333333333333 0  0.2666666666666666 -0.9333333333333333 0  0.3999999999999999 -0.9333333333333333 0  0.5333333333333332 -0.9333333333333333 0  0.6666666666666665 -0.9333333333333333 0  0.7999999999999998 -0.9333333333333333 0  0.9333333333333331 -0.9333333333333333 0  1.066666666666667 -0.9333333333333333 0  1.2 -0.9333333333333333 0  1.333333333333333 -0.9333333333333333 0  1.466666666666667 -0.9333333333333333 0  1.6 -0.9333333333333333 0  1.733333333333333 -0.9333333333333333 0  1.866666666666667 -0.9333333333333333 0  2 -0.9333333333333333 0  -2 -0.8 0  -1.866666666666667 -0.8 0  -1.733333333333333 -0.8 0  -1.6 -0.8 0  -1.466666666666667 -0.8 0  -1.333333333333333 -0.8 0  -1.2 -0.8 0  -1.066666666666667 -0.8 0  -0.9333333333333333 -0.8 0  -0.8 -0.8 0  -0.6666666666666667 -0.8 0  -0.5333333333333334 -0.8 0  -0.3999999999999999 -0.8 0  -0.2666666666666666 -0.8 0  -0.1333333333333333 -0.8 0  0 -0.8 0  0.1333333333333333 -0.8 0  0.2666666666666666 -0.8 0  0.3999999999999999 -0.8 0  0.5333333333333332 -0.8 0  0.6666666666666665 -0.8 0  0.7999999999999998 -0.8 0  0.9333333333333331 -0.8 0  1.066666666666667 -0.8 0  1.2 -0.8 0  1.333333333333333 -0.8 0  1.466666666666667 -0.8 0  1.6 -0.8 0  1.733333333333333 -0.8 0  1.866666666666667 -0.8 0  2 -0.8 0  -2 -0.6666666666666667 0  -1.866666666666667 -0.
[...]
<PointData  Scalars="f_10422"> 
<DataArray  type="Float64"  Name="f_10422"  format="ascii">0.0000000000000000e+00  0.0000000000000000e+00  0.0000000000000000e+00  0.0000000000000000e+00  0.0000000000000000e+00  0.0000000000000000e+00  0.0000000000000000e+00  0.0000000000000000e+00  0.0000000000000000e+00  0.0000000000000000e+00  0.0000000000000000e+00  0.0000000000000000e+00  0.0000000000000000e+00  0.0000000000000000e+00  0.0000000000000000e+00  0.0000000000000000e+00  0.0000000000000000e+00  0.0000000000000000e+00  0.0000000000000000e+00  0.0000000000000000e+00  0.0000000000000000e+00  0.0000000000000000e+00  0.0000000000000000e+00  0.0000000000000000e+00  0.0000000000000000e+00  0.0000000000000000e+00  0.0000000000000000e+00  0.0000000000000000e+00  0.0000000000000000e+00  0.0000000000000000e+00  0.0000000000000000e+00  0.0000000000000000e+00  1.3462056919923832e-21  2.6752337495340640e-21  3.9735074570562794e-21  5.2272734954371399e-21  6.4230593620157103e-21  7.5479314013855560e-21  8.5896818744544425e-21  9.5369838272648734e-21  1.0379526168243236e-20  1.1108132906838585e-20  1.1714867567255204e-20  1.2193122720873129e-20  1.2537694209906120e-20  1.2744839552451661e-20  1.2812320067893423e-20  1.2739426375721146e-20  1.2526987070323116e-20  1.2177360544741621e-20  1.1694410120896876e-20  1.1083462840323884e-20  1.0351252480789658e-20  9.5058476005988810e-21  8.5565656997003646e-21  7.5138749863194239e-21  6.3892859017433221e-21  5.1952358857090133e-21  3.9449740108303145e-21  2.6524606654303226e-21  1.3323235981704006e-21  0.0000000000000000e+00  0.0000000000000000e+00  2.6752337495340636e-21  5.3178304061219562e-21  7.8998190558621966e-21  1.0393536466068339e-20  1.2772073210670853e-20  1.5009655977710574e-20  1.7081978985928234e-20  1.8966497998948455e-20  2.0642693626035619e-20  2.2092306226321020e-20  2.3299542557698083e-20  2.4251253361614520e-20  2.4937080750115063e-20  2.5349574255358759e-20  2.5484274563988144e-20  2.5339764214195098e-20  2.4917684843385293e-20  2.4222720918289728e-20  2.3262550246376015e-20  2.2047761953389483e-20  2.0591743019491221e-20  1.8910534908344157e-20  1.7022662330237845e-20  1.4948936818609763e-20  1.2712238710642172e-20  1.0337282602859153e-20  7.8503739896015708e-21  5.2791695464610885e-21  2.6524606654303234e-21  0.0000000000000000e+00  0.0000000000000000e+00  3.9735074570562794e-21  7.8998190558621981e-21  1.1736740765395954e-20  1.5442857644835210e-20  1.8978028683521884e-20  2.2303871795252808e-20  2.5384218790627415e-20  2.8185535425290941e-20  3.0677304875526490e-20  3.2832373064166273e-20  3.4627253873929394e-20  3.6042392078803067e-20  3.7062381859221498e-20  3.7676138987551529e-20  3.7877025117261339e-20  3.7662923039054926e-20  3.7036262251744851e-20  3.6003994716364117e-20  3.4577521207535057e-20  3.2772569240380690e-20  3.0609024133699931e-20  2.8110715377189634e-20  2.5305161118977475e-20  2.2223274311378222e-20  1.8899034896403430e-20  1.5369133425103499e-20  1.1672592620435785e-20  7.8503739896015723e-21  3.9449740108303168e-21  0.0000000000000000e+00  0.0000000000000000e+00  5.2272734954371391e-21  1.0393536466068338e-20  1.5442857644835207e-20  2.0320481262167822e-20  2.4973427239450810e-20  2.9351088308938610e-20  3.3405803436367497e-20  3.7093396352385272e-20  4.0373672403436203e-20  4.3210868732832916e-20  4.5574053584146592e-20  4.7437471000712831e-20  4.8780827646382234e-20  4.9589518975311879e-20  4.9854792545771302e-20  4.9573846896354984e-20  4.8749865069659374e-20  4.7391982566030395e-20  4.5515190228112050e-20  4.3140173287723283e-20  4.0293088544647123e-20  3.7005282389150167e-20  3.3312953124497910e-20  2.9256761786528560e-20  2.4881396368621882e-20  2.0235094950568152e-20  1.5369133425103502e-20  1.0337282602859157e-20  5.1952358857090171e-21  0.0000000000000000e+00  0.0000000000000000e+00  6.4230593620157050e-21  1.2772073210670850e-20  1.8978028683521878e-20  2.4973427239450798e-20  3.0693011542296348e-20  3.6074482238229993e-20  4.1059188452514877e-20  4.5592779803886228e-20  4.9625810757282121e-20  5.3114290037490424e-20  5.6020169039929437e-20  5.8311764065669600e-20  5.9964107984397403e-20  6.0959227689726549e-20  6.1286344494752534e-20  6.0941995432075176e-20  5.9930074269155402e-20  5.8261791919280378e-20  5.5955556811333510e-20  5.3036776668332183e-20  4.9537584025335599e-20  4.5496488680539115e-20  4.0957961103509155e-20  3.5971951594393096e-20  3.0593350643337416e-20  2.4881396368621897e-20  1.8899034896403439e-20  1.2712238710642181e-20  6.3892859017433259e-21  0.0000000000000000e+00  0.0000000000000000e+00  7.5479314013855440e-21  1.5009655977710556e-20  2.2303871795252790e-20  2.9351088308938580e-20  3.6074482238229975e-20  4.2400734493863589e-20  4.8260834835396599e-20  5.3590842279710277e-20  5.8332591016292533e-20  6.2434333111093127e-20  6.5851310533768134e-20  6.8546250115245688e-20  7.0489776029144941e-20  7.1660735354123913e-20  7.2046433246912260e-20  7.1642775249721592e-20  7.0454315271374423e-20  6.8494208812986705e-20  6.5784072047114209e-20  6.2353748392584886e-20  5.8240985242518969e-20  5.3491024484051122e-20  4.8156111373201182e-20  4.2294927164808448e-20  3.5971951594393096e-20  2.9256761786528566e-20  2.2223274311378216e-20  1.4948936818609763e-20  7.5138749863194269e-21  0.0000000000000000e+00  0.0000000000000000e+00  8.5896818744544260e-21  1.7081978985928195e-20  2.5384218790627388e-20  3.3405803436367467e-20  4.1059188452514835e-20  4.8260834835396593e-20  5.4932122237452594e-20  6.1000211375349661e-20  6.6398844785129050e-20  7.1069076230228896e-20  7.4959920240098958e-20  7.8028914391205402e-20  8.0242588054657984e-20  8.1576832447765599e-20  8.2017167955295530e-20  8.1558905835541846e-20  8.0207202594598424e-20  7.7977006492499486e-20  7.4892896826735775e-20  7.0988817809173625e-20  6.6307709996353071e-20  6.0901043332315585e-20  5.4828256895017104e-20  4.8156111373201158e-20  4.0957961103509149e-20  3.3312953124497904e-20  2.5305161118977445e-20  1.7022662330237836e-20  8.5565656997003616e-21  0.0000000000000000e+00  0.0000000000000000e+00  9.5369838272648614e-21  1.8966497998948434e-20  2.8185535425290917e-20  3.7093396352385242e-20  4.5592779803886191e-20  5.3590842279710259e-20  6.1000211375349649e-20  6.7739942188864962e-20  7.3736405090883068e-20  7.8924094406576607e-20  8.3246348654893453e-20  8.6655974144981307e-20  8.9115764921183001e-20  9.0598913271371684e-20  9.1089306267430600e-20  9.0581705088120566e-20  8.9081805176904290e-20  8.6606176600879909e-20  8.3182085289614182e-20  7.8847197130019591e-20  7.3649168159184718e-20  6.7645125312849749e-20  6.0901043332315610e-20  5.3491024484051116e-20  4.5496488680539109e-20  3.7005282389150155e-20  2.8110715377189621e-20  1.8910534908344148e-20  9.5058476005988719e-21  0.0000000000000000e+00  0.0000000000000000e+00  1.0379526168243227e-20  2.0642693626035601e-20  3.0677304875526466e-20  4.0373672403436179e-20  4.9625810757282079e-20  5.8332591016292496e-20  6.6398844785129050e-20  7.3736405090883080e-20  8.0265072191591185e-20  8.5913493195180067e-20  9.0619945448367616e-20  9.4333014826400378e-20  9.7012161303454135e-20  9.8628165491674818e-20  9.9163451192146335e-20  9.8612280393035598e-20  9.6980818567616371e-20  9.4287069555192790e-20  9.0560680736955905e-20  8.5842620630885184e-20  8.0184732408056394e-20  7.3649168159184874e-20  6.6307709996353215e-20  5.8240985242519053e-20  4.9537584025335666e-20  4.0293088544647177e-20  3.0609024133699979e-20  2.0591743019491248e-20  1.0351252480789672e-20  0.0000000000000000e+00  0.0000000000000000e+00  1.1108132906838570e-20  2.2092306226320987e-20  3.2832373064166243e-20  4.3210868732832868e-20  5.3114290037490369e-20  6.2434333111093115e-20  7.1069076230228896e-20  7.8924094406576643e-20  8.5913493195180091e-20  9.1960850041834123e-20  9.7000052552661321e-20  1.0097602426432575e-19  1.0384532979070401e-19  1.0557665259804607e-19  1.0615114009800102e-19  1.0556261223101314e-19  1.0381763122671131e-19  1.0093543175780496e-19  9.6947712233695392e-20  9.1898289492776509e-20  8.5842620630885329e-20  7.8847197130019892e-20  7.0988817809173902e-20  6.2353748392585079e-20  5.3036776668332316e-20  4.3140173287723385e-20  3.2772569240380769e-20  2.2047761953389543e-20  1.1083462840323919e-20  0.0000000000000000e+00  0.0000000000000000e+00  1.1714867567255183e-20  2.3299542557698038e-20  3.4627253873929346e-20  4.5574053584146544e-20  5.6020169039929377e-20  6.5851310533768122e-20  7.4959920240098922e-20  8.3246348654893441e-20  9.0619945448367640e-20  9.7000052552661333e-20  1.0231688838911412e-19  1.0651231336547584e-19  1.0954046811385054e-19  1.1136827737195565e-19  1.1197581391345144e-19  1.1135651848967660e-19  1.0951727333792695e-19  1.0647832842330580e-19  1.0227308119477796e-19  9.6947712233695549e-20  9.0560680736956182e-20  8.3182085289614555e-20  7.4892896826736184e-20  6.5784072047114522e-20  5.5955556811333703e-20  4.5515190228112206e-20  3.4577521207535177e-20  2.3262550246376112e-20  1.1694410120896927e-20  0.0000000000000000e+00  0.0000000000000000e+00  1.2193122720873101e-20  2.4251253361614457e-20  3.6042392078802970e-20  4.7437471000712729e-20  5.8311764065669480e-20  6.8546250115245603e-20  7.8028914391205330e-20  8.6655974144981259e-20  9.4333014826400330e-20  1.0097602426432571e-19  1.0651231336547582e-19  1.1088131311504751e-19  1.1403523904033176e-19  1.1593961577439175e-19  1.1657365591088623e-19  1.1593048895421790e-19  1.1401723782287504e-19  1.1085494203978362e-19  1.0647832842330580e-19  1.0093543175780512e-19  9.4287069555193079e-20  8.6606176600880307e-20  7.7977006492499907e-20  6.8494208812986994e-20  5.8261791919280571e-20  4.7391982566030551e-20  3.6003994716364237e-20  2.4222720918289812e-20  1.2177360544741670e-20  0.0000000000000000e+00  0.0000000000000000e+00  1.2537694209906090e-20  2.4937080750114991e-20  3.7062381859221378e-20  4.8780827646382108e-20  5.9964107984397223e-20  7.0489776029144797e-20  8.0242588054657900e-20  8.9115764921183001e-20  9.7012161303454099e-20  1.0384532979070389e-19  1.0954046811385047e-19  1.1403523904033172e-19  1.1728045388339862e-19  1.1924061208048483e-19  1.1989429088510548e-19  1.1923438086946882e-19  1.1726816463165609e-19  1.1401723782287496e-19  1.0951727333792688e-19  1.0381763122671143e-19  9.6980818567616635e-20  8.9081805176904687e-20  8.0207202594598749e-20  7.0454315271374652e-20  5.9930074269155571e-20  4.8749865069659488e-20  3.7036262251744954e-20  2.4917684843385365e-20  1.2526987070323156e-20  0.0000000000000000e+00  0.0000000000000000e+00  1.2744839552451619e-20  2.5349574255358662e-20  3.7676138987551354e-20  4.9589518975311717e-20  6.0959227689726392e-20  7.1660735354123768e-20  8.1576832447765455e-20  9.0598913271371588e-20  9.8628165491674794e-20  1.0557665259804596e-19  1.1136827737195555e-19  1.1593961577439168e-19  1.1924061208048480e-19  1.2123512761672731e-19  1.2190133706609927e-19  1.2123196798152032e-19  1.1923438086946868e-19  1.1593048895421775e-19  1.1135651848967648e-19  1.0556261223101320e-19  9.8612280393035815e-20  9.0581705088120939e-20  8.1558905835542171e-20  7.1642775249721821e-20  6.0941995432075344e-20  4.9573846896355111e-20  3.7662923039055022e-20  2.5339764214195167e-20  1.2739426375721182e-20  0.0000000000000000e+00  0.0000000000000000e+00  1.2812320067893375e-20  2.5484274563988045e-20  3.7877025117261189e-20  4.9854792545771128e-20  6.1286344494752342e-20  7.2046433246912079e-20  8.2017167955295386e-20  9.1089306267430431e-20  9.9163451192146167e-20  1.0615114009800083e-19  1.1197581391345125e-19  1.1657365591088613e-19  1.1989429088510534e-19  1.2190133706609912e-19  1.2257280471929549e-19  1.2190133706609922e-19  1.1989429088510536e-19  1.1657365591088613e-19  1.1197581391345137e-19  1.0615114009800111e-19  9.9163451192146516e-20  9.1089306267430925e-20  8.2017167955295855e-20  7.2046433246912452e-20  6.1286344494752679e-20  4.9854792545771417e-20  3.7877025117261417e-20  2.5484274563988196e-20  1.2812320067893458e-20  0.0000000000000000e+00  0.0000000000000000e+00  1.2739426375721098e-20  2.5339764214195014e-20  3.7662923039054800e-20  4.9573846896354828e-20  6.0941995432074995e-20  7.1642775249721436e-20  8.1558905835541690e-20  9.0581705088120361e-20  9.8612280393035321e-20  1.0556261223101285e-19  1.1135651848967631e-19  1.1593048895421766e-19  1.1923438086946851e-19  1.2123196798152008e-19  1.2190133706609908e-19  1.2123512761672726e-19  1.1924061208048468e-19  1.1593961577439161e-19  1.1136827737195562e-19  1.0557665259804614e-19  9.8628165491675023e-20  9.0598913271372009e-20  8.1576832447765876e-20  7.1660735354124129e-20  6.0959227689726705e-20  4.9589518975312011e-20  3.7676138987551607e-20  2.5349574255358819e-20  1.2744839552451700e-20  0.0000000000000000e+00  0.0000000000000000e+00  1.2526987070323066e-20  2.4917684843385205e-20  3.7036262251744719e-20  4.8749865069659193e-20  5.9930074269155222e-20  7.0454315271374243e-20  8.0207202594598232e-20  8.9081805176904073e-20  9.6980818567616094e-20  1.0381763122671100e-19  1.0951727333792661e-19  1.1401723782287482e-19  1.1726816463165577e-19  1.1923438086946839e-19  1.1989429088510519e-19  1.1924061208048458e-19  1.1728045388339843e-19  1.1403523904033160e-19  1.0954046811385047e-19  1.0384532979070407e-19  9.7012161303454328e-20  8.9115764921183314e-20  8.0242588054658261e-20  7.0489776029145170e-20  5.9964107984397584e-20  4.8780827646382391e-20  3.7062381859221606e-20  2.4937080750115129e-20  1.2537694209906160e-20  0.0000000000000000e+00  0.0000000000000000e+00  1.2177360544741579e-20  2.4222720918289641e-20  3.6003994716363985e-20  4.7391982566030250e-20  5.8261791919280246e-20  6.8494208812986585e-20  7.7977006492499329e-20  8.6606176600879669e-20  9.4287069555192525e-20  1.0093543175780467e-19  1.0647832842330547e-19  1.1085494203978333e-19  1.1401723782287460e-19  1.1593048895421746e-19  1.1657365591088587e-19  1.1593961577439144e-19  1.1403523904033155e-19  1.1088131311504731e-19  1.0651231336547576e-19  1.0097602426432581e-19  9.4333014826400534e-20  8.6655974144981608e-20  7.8028914391205679e-20  6.8546250115245928e-20  5.8311764065669805e-20  4.7437471000712982e-20  3.6042392078803169e-20  2.4251253361614583e-20  1.2193122720873164e-20  0.0000000000000000e+00  0.0000000000000000e+00  1.1694410120896834e-20  2.3262550246375934e-20  3.4577521207534943e-20  4.5515190228111942e-20  5.5955556811333390e-20  6.5784072047114137e-20  7.4892896826735655e-20  8.3182085289613941e-20  9.0560680736955640e-20  9.6947712233695116e-20  1.0227308119477756e-19  1.0647832842330549e-19  1.0951727333792642e-19  1.1135651848967612e-19  1.1197581391345106e-19  1.1136827737195531e-19  1.0954046811385025e-19  1.0651231336547563e-19  1.0231688838911403e-19  9.7000052552661393e-20  9.0619945448367821e-20  8.3246348654893778e-20  7.4959920240099295e-20  6.5851310533768447e-20  5.6020169039929665e-20  4.5574053584146754e-20  3.4627253873929502e-20  2.3299542557698144e-20  1.1714867567255239e-20  0.0000000000000000e+00  0.0000000000000000e+00  1.1083462840323844e-20  2.2047761953389399e-20  3.2772569240380582e-20  4.3140173287723174e-20  5.3036776668332063e-20  6.2353748392584766e-20  7.0988817809173468e-20  7.8847197130019362e-20  8.5842620630884883e-20  9.1898289492776160e-20  9.6947712233695176e-20  1.0093543175780475e-19  1.0381763122671096e-19  1.0556261223101279e-19  1.0615114009800073e-19  1.0557665259804580e-19  1.0384532979070375e-19  1.0097602426432559e-19  9.7000052552661260e-20  9.1960850041834255e-20  8.5913493195180404e-20  7.8924094406577100e-20  7.1069076230229329e-20  6.2434333111093440e-20  5.3114290037490652e-20  4.3210868732833084e-20  3.2832373064166411e-20  2.2092306226321108e-20  1.1108132906838627e-20  0.0000000000000000e+00  0.0000000000000000e+00  1.0351252480789612e-20  2.0591743019491131e-20  3.0609024133699835e-20  4.0293088544646985e-20  4.9537584025335437e-20  5.8240985242518789e-20  6.6307709996352866e-20  7.3649168159184465e-20  8.0184732408055997e-20  8.5842620630884943e-20  9.0560680736955761e-20  9.4287069555192706e-20  9.6980818567616154e-20  9.8612280393035393e-20  9.9163451192146131e-20  9.8628165491674649e-20  9.7012161303454003e-20  9.4333014826400245e-20  9.0619945448367604e-20  8.5913493195180211e-20  8.0265072191591510e-20  7.3736405090883537e-20  6.6398844785129447e-20  5.8332591016292833e-20  4.9625810757282350e-20  4.0373672403436408e-20  3.0677304875526628e-20  2.0642693626035713e-20  1.0379526168243281e-20  0.0000000000000000e+00  0.0000000000000000e+00  9.5058476005988298e-21  1.8910534908344064e-20  2.8110715377189507e-20  3.7005282389150005e-20  4.5496488680538935e-20  5.3491024484050911e-20  6.0901043332315309e-20  6.7645125312849388e-20  7.3649168159184441e-20  7.8847197130019447e-20  8.3182085289614097e-20  8.6606176600879885e-20  8.9081805176904205e-20  9.0581705088120481e-20  9.1089306267430479e-20  9.0598913271371600e-20  8.9115764921182929e-20  8.6655974144981223e-20  8.3246348654893465e-20  7.8924094406576823e-20  7.3736405090883393e-20  6.7739942188865371e-20  6.1000211375350022e-20  5.3590842279710560e-20  4.5592779803886450e-20  3.7093396352385452e-20  2.8185535425291073e-20  1.8966497998948542e-20  9.5369838272649140e-21  0.0000000000000000e+00  0.0000000000000000e+00  8.5565656997003165e-21  1.7022662330237751e-20  2.5305161118977330e-20  3.3312953124497735e-20  4.0957961103508945e-20  4.8156111373200941e-20  5.4828256895016815e-20  6.0901043332315260e-20  6.6307709996352830e-20  7.0988817809173481e-20  7.4892896826735787e-20  7.7977006492499486e-20  8.0207202594598340e-20  8.1558905835541774e-20  8.2017167955295422e-20  8.1576832447765491e-20  8.0242588054657912e-20  7.8028914391205318e-20  7.4959920240098934e-20  7.1069076230229029e-20  6.6398844785129242e-20  6.1000211375349950e-20  5.4932122237452859e-20  4.8260834835396804e-20  4.1059188452515040e-20  3.3405803436367636e-20  2.5384218790627508e-20  1.7081978985928282e-20  8.5896818744544681e-21  0.0000000000000000e+00  0.0000000000000000e+00  7.5138749863193848e-21  1.4948936818609685e-20  2.2223274311378107e-20  2.9256761786528415e-20  3.5971951594392927e-20  4.2294927164808250e-20  4.8156111373200911e-20  5.3491024484050833e-20  5.8240985242518704e-20  6.2353748392584754e-20  6.5784072047114185e-20  6.8494208812986681e-20  7.0454315271374351e-20  7.1642775249721484e-20  7.2046433246912115e-20  7.1660735354123804e-20  7.0489776029144857e-20  6.8546250115245615e-20  6.5851310533768134e-20  6.2434333111093223e-20  5.8332591016292689e-20  5.3590842279710500e-20  4.8260834835396810e-20  4.2400734493863782e-20  3.6074482238230144e-20  2.9351088308938700e-20  2.2303871795252881e-20  1.5009655977710619e-20  7.5479314013855756e-21  0.0000000000000000e+00  0.0000000000000000e+00  6.3892859017432875e-21  1.2712238710642112e-20  1.8899034896403339e-20  2.4881396368621765e-20  3.0593350643337277e-20  3.5971951594392915e-20  4.0957961103508933e-20  4.5496488680538869e-20  4.9537584025335425e-20  5.3036776668332081e-20  5.5955556811333450e-20  5.8261791919280366e-20  5.9930074269155378e-20  6.0941995432075115e-20  6.1286344494752426e-20  6.0959227689726428e-20  5.9964107984397307e-20  5.8311764065669516e-20  5.6020169039929425e-20  5.3114290037490514e-20  4.9625810757282296e-20  4.5592779803886396e-20  4.1059188452515034e-20  3.6074482238230126e-20  3.0693011542296462e-20  2.4973427239450894e-20  1.8978028683521948e-20  1.2772073210670897e-20  6.4230593620157321e-21  0.0000000000000000e+00  0.0000000000000000e+00  5.1952358857089870e-21  1.0337282602859102e-20  1.5369133425103427e-20  2.0235094950568059e-20  2.4881396368621777e-20  2.9256761786528433e-20  3.3312953124497742e-20  3.7005282389149981e-20  4.0293088544646991e-20  4.3140173287723204e-20  4.5515190228112008e-20  4.7391982566030365e-20  4.8749865069659284e-20  4.9573846896354918e-20  4.9854792545771212e-20  4.9589518975311801e-20  4.8780827646382186e-20  4.7437471000712771e-20  4.5574053584146580e-20  4.3210868732832970e-20  4.0373672403436342e-20  3.7093396352385422e-20  3.34058034363