<?xml version="1.0"?>
<VTKFile type="UnstructuredGrid"  version="0.1"  >
<UnstructuredGrid>
<Piece  NumberOfPoints="961" NumberOfCells="1800">
<Points>
<DataArray  type="Float64"  NumberOfComponents="3"  format="ascii">-2 -2 0  -1.866666666666667 -2 0  -1.733333333333333 -2 0  -1.6 -2 0  -1.466666666666667 -2 0  -1.333333333333333 -2 0  -1.2 -2 0  -1.066666666666667 -2 0  -0.9333333333333333 -2 0  -0.8 -2 0  -0.6666666666666667 -2 0  -0.5333333333333334 -2 0  -0.3999999999999999 -2 0  -0.2666666666666666 -2 0  -0.1333333333333333 -2 0  0 -2 0  0.1333333333333333 -2 0  0.2666666666666666 -2 0  0.3999999999999999 -2 0  0.5333333333333332 -2 0  0.6666666666666665 -2 0  0.7999999999999998 -2 0  0.9333333333333331 -2 0  1.066666666666667 -2 0  1.2 -2 0  1.333333333333333 -2 0  1.466666666666667 -2 0  1.6 -2 0  1.733333333333333 -2 0  1.866666666666667 -2 0  2 -2 0  -2 -1.866666666666667 0  -1.866666666666667 -1.866666666666667 0  -1.733333333333333 -1.866666666666667 0  -1.6 -1.866666666666667 0  -1.466666666666667 -1.866666666666667 0  -1.333333333333333 -1.866666666666667 0  -1.2 -1.866666666666667 0  -1.066666666666667 -1.866666666666667 0  -0.9333333333333333 -1.866666666666667 0  -0.8 -1.866666666666667 0  -0.6666666666666667 -1.866666666666667 0  -0.5333333333333334 -1.866666666666667 0  -0.3999999999999999 -1.866666666666667 0  -0.2666666666666666 -1.866666666666667 0  -0.1333333333333333 -1.866666666666667 0  0 -1.866666666666667 0  0.1333333333333333 -1.866666666666667 0  0.2666666666666666 -1.866666666666667 0  0.3999999999999999 -1.866666666666667 0  0.5333333333333332 -1.866666666666667 0  0.6666666666666665 -1.866666666666667 0  0.7999999999999998 -1.866666666666667 0  0.9333333333333331 -1.866666666666667 0  1.066666666666667 -1.866666666666667 0  1.2 -1.866666666666667 0  1.333333333333333 -1.866666666666667 0  1.466666666666667 -1.866666666666667 0  1.6 -1.866666666666667 0  1.733333333333333 -1.866666666666667 0  1.866666666666667 -1.866666666666667 0  2 -1.866666666666667 0  -2 -1.733333333333333 0  -1.866666666666667 -1.733333333333333 0  -1.733333333333333 -1.733333333333333 0  -1.6 -1.733333333333333 0  -1.466666666666667 -1.733333333333333 0  -1.333333333333333 -1.733333333333333 0  -1.2 -1.733333333333333 0  -1.066666666666667 -1.733333333333333 0  -0.9333333333333333 -1.733333333333333 0  -0.8 -1.733333333333333 0  -0.6666666666666667 -1.733333333333333 0  -0.5333333333333334 -1.733333333333333 0  -0.3999999999999999 -1.733333333333333 0  -0.2666666666666666 -1.733333333333333 0  -0.1333333333333333 -1.733333333333333 0  0 -1.733333333333333 0  0.1333333333333333 -1.733333333333333 0  0.2666666666666666 -1.733333333333333 0  0.3999999999999999 -1.733333333333333 0  0.5333333333333332 -1.733333333333333 0  0.6666666666666665 -1.733333333333333 0  0.7999999999999998 -1.733333333333333 0  0.9333333333333331 -1.733333333333333 0  1.066666666666667 -1.733333333333333 0  1.2 -1.733333333333333 0  1.333333333333333 -1.733333333333333 0  1.466666666666667 -1.733333333333333 0  1.6 -1.733333333333333 0  1.733333333333333 -1.733333333333333 0  1.866666666666667 -1.733333333333333 0  2 -1.733333333333333 0  -2 -1.6 0  -1.866666666666667 -1.6 0  -1.733333333333333 -1.6 0  -1.6 -1.6 0  -1.466666666666667 -1.6 0  -1.333333333333333 -1.6 0  -1.2 -1.6 0  -1.066666666666667 -1.6 0  -0.9333333333333333 -1.6 0  -0.8 -1.6 0  -0.6666666666666667 -1.6 0  -0.5333333333333334 -1.6 0  -0.3999999999999999 -1.6 0  -0.2666666666666666 -1.6 0  -0.1333333333333333 -1.6 0  0 -1.6 0  0.1333333333333333 -1.6 0  0.2666666666666666 -1.6 0  0.3999999999999999 -1.6 0  0.5333333333333332 -1.6 0  0.6666666666666665 -1.6 0  0.7999999999999998 -1.6 0  0.9333333333333331 -1.6 0  1.066666666666667 -1.6 0  1.2 -1.6 0  1.333333333333333 -1.6 0  1.466666666666667 -1.6 0  1.6 -1.6 0  1.733333333333333 -1.6 0  1.866666666666667 -1.6 0  2 -1.6 0  -2 -1.466666666666667 0  -1.866666666666667 -1.466666666666667 0  -1.733333333333333 -1.466666666666667 0  -1.6 -1.466666666666667 0  -1.466666666666667 -1.466666666666667 0  -1.333333333333333 -1.466666666666667 0  -1.2 -1.466666666666667 0  -1.066666666666667 -1.466666666666667 0  -0.9333333333333333 -1.466666666666667 0  -0.8 -1.466666666666667 0  -0.6666666666666667 -1.466666666666667 0  -0.5333333333333334 -1.466666666666667 0  -0.3999999999999999 -1.466666666666667 0  -0.2666666666666666 -1.466666666666667 0  -0.1333333333333333 -1.466666666666667 0  0 -1.466666666666667 0  0.1333333333333333 -1.466666666666667 0  0.2666666666666666 -1.466666666666667 0  0.3999999999999999 -1.466666666666667 0  0.5333333333333332 -1.466666666666667 0  0.6666666666666665 -1.466666666666667 0  0.7999999999999998 -1.466666666666667 0  0.9333333333333331 -1.466666666666667 0  1.066666666666667 -1.466666666666667 0  1.2 -1.466666666666667 0  1.333333333333333 -1.466666666666667 0  1.466666666666667 -1.466666666666667 0  1.6 -1.466666666666667 0  1.733333333333333 -1.466666666666667 0  1.866666666666667 -1.466666666666667 0  2 -1.466666666666667 0  -2 -1.333333333333333 0  -1.866666666666667 -1.333333333333333 0  -1.733333333333333 -1.333333333333333 0  -1.6 -1.333333333333333 0  -1.466666666666667 -1.333333333333333 0  -1.333333333333333 -1.333333333333333 0  -1.2 -1.333333333333333 0  -1.066666666666667 -1.333333333333333 0  -0.9333333333333333 -1.333333333333333 0  -0.8 -1.333333333333333 0  -0.6666666666666667 -1.333333333333333 0  -0.5333333333333334 -1.333333333333333 0  -0.3999999999999999 -1.333333333333333 0  -0.2666666666666666 -1.333333333333333 0  -0.1333333333333333 -1.333333333333333 0  0 -1.333333333333333 0  0.1333333333333333 -1.333333333333333 0  0.2666666666666666 -1.333333333333333 0  0.3999999999999999 -1.333333333333333 0  0.5333333333333332 -1.333333333333333 0  0.6666666666666665 -1.333333333333333 0  0.7999999999999998 -1.333333333333333 0  0.9333333333333331 -1.333333333333333 0  1.066666666666667 -1.333333333333333 0  1.2 -1.333333333333333 0  1.333333333333333 -1.333333333333333 0  1.466666666666667 -1.333333333333333 0  1.6 -1.333333333333333 0  1.733333333333333 -1.333333333333333 0  1.866666666666667 -1.333333333333333 0  2 -1.333333333333333 0  -2 -1.2 0  -1.866666666666667 -1.2 0  -1.733333333333333 -1.2 0  -1.6 -1.2 0  -1.466666666666667 -1.2 0  -1.333333333333333 -1.2 0  -1.2 -1.2 0  -1.066666666666667 -1.2 0  -0.9333333333333333 -1.2 0  -0.8 -1.2 0  -0.6666666666666667 -1.2 0  -0.5333333333333334 -1.2 0  -0.3999999999999999 -1.2 0  -0.2666666666666666 -1.2 0  -0.1333333333333333 -1.2 0  0 -1.2 0  0.1333333333333333 -1.2 0  0.2666666666666666 -1.2 0  0.3999999999999999 -1.2 0  0.5333333333333332 -1.2 0  0.6666666666666665 -1.2 0  0.7999999999999998 -1.2 0  0.9333333333333331 -1.2 0  1.066666666666667 -1.2 0  1.2 -1.2 0  1.333333333333333 -1.2 0  1.466666666666667 -1.2 0  1.6 -1.2 0  1.733333333333333 -1.2 0  1.866666666666667 -1.2 0  2 -1.2 0  -2 -1.066666666666667 0  -1.866666666666667 -1.066666666666667 0  -1.733333333333333 -1.066666666666667 0  -1.6 -1.066666666666667 0  -1.466666666666667 -1.066666666666667 0  -1.333333333333333 -1.066666666666667 0  -1.2 -1.066666666666667 0  -1.066666666666667 -1.066666666666667 0  -0.9333333333333333 -1.066666666666667 0  -0.8 -1.066666666666667 0  -0.6666666666666667 -1.066666666666667 0  -0.5333333333333334 -1.066666666666667 0  -0.3999999999999999 -1.066666666666667 0  -0.2666666666666666 -1.066666666666667 0  -0.1333333333333333 -1.066666666666667 0  0 -1.066666666666667 0  0.1333333333333333 -1.066666666666667 0  0.2666666666666666 -1.066666666666667 0  0.3999999999999999 -1.066666666666667 0  0.5333333333333332 -1.066666666666667 0  0.6666666666666665 -1.066666666666667 0  0.7999999999999998 -1.066666666666667 0  0.9333333333333331 -1.066666666666667 0  1.066666666666667 -1.066666666666667 0  1.2 -1.066666666666667 0  1.333333333333333 -1.066666666666667 0  1.466666666666667 -1.066666666666667 0  1.6 -1.066666666666667 0  1.733333333333333 -1.066666666666667 0  1.866666666666667 -1.066666666666667 0  2 -1.066666666666667 0  -2 -0.9333333333333333 0  -1.866666666666667 -0.9333333333333333 0  -1.733333333333333 -0.9333333333333333 0  -1.6 -0.9333333333333333 0  -1.466666666666667 -0.9333333333333333 0  -1.333333333333333 -0.9333333333333333 0  -1.2 -0.9333333333333333 0  -1.066666666666667 -0.9333333333333333 0  -0.9333333333333333 -0.9333333333333333 0  -0.8 -0.9333333333333333 0  -0.6666666666666667 -0.9333333333333333 0  -0.5333333333333334 -0.9333333333333333 0  -0.3999999999999999 -0.9333333333333333 0  -0.2666666666666666 -0.9333333333333333 0  -0.1333333333333333 -0.9333333333333333 0  0 -0.9333333333333333 0  0.1333333333333333 -0.9333333333333333 0  0.2666666666666666 -0.9333333333333333 0  0.3999999999999999 -0.9333333333333333 0  0.5333333333333332 -0.9333333333333333 0  0.6666666666666665 -0.9333333333333333 0  0.7999999999999998 -0.9333333333333333 0  0.9333333333333331 -0.9333333333333333 0  1.066666666666667 -0.9333333333333333 0  1.2 -0.9333333333333333 0  1.333333333333333 -0.9333333333333333 0  1.466666666666667 -0.9333333333333333 0  1.6 -0.9333333333333333 0  1.733333333333333 -0.9333333333333333 0  1.866666666666667 -0.9333333333333333 0  2 -0.9333333333333333 0  -2 -0.8 0  -1.866666666666667 -0.8 0  -1.733333333333333 -0.8 0  -1.6 -0.8 0  -1.466666666666667 -0.8 0  -1.333333333333333 -0.8 0  -1.2 -0.8 0  -1.066666666666667 -0.8 0  -0.9333333333333333 -0.8 0  -0.8 -0.8 0  -0.6666666666666667 -0.8 0  -0.5333333333333334 -0.8 0  -0.3999999999999999 -0.8 0  -0.2666666666666666 -0.8 0  -0.1333333333333333 -0.8 0  0 -0.8 0  0.1333333333333333 -0.8 0  0.2666666666666666 -0.8 0  0.3999999999999999 -0.8 0  0.5333333333333332 -0.8 0  0.6666666666666665 -0.8 0  0.7999999999999998 -0.8 0  0.9333333333333331 -0.8 0  1.066666666666667 -0.8 0  1.2 -0.8 0  1.333333333333333 -0.8 0  1.466666666666667 -0.8 0  1.6 -0.8 0  1.733333333333333 -0.8 0  1.866666666666667 -0.8 0  2 -0.8 0  -2 -0.6666666666666667 0  -1.866666666666667 -0.
[...]
<PointData  Scalars="f_10422"> 
<DataArray  type="Float64"  Name="f_10422"  format="ascii">0.0000000000000000e+00  0.0000000000000000e+00  0.0000000000000000e+00  0.0000000000000000e+00  0.0000000000000000e+00  0.0000000000000000e+00  0.0000000000000000e+00  0.0000000000000000e+00  0.0000000000000000e+00  0.0000000000000000e+00  0.0000000000000000e+00  0.0000000000000000e+00  0.0000000000000000e+00  0.0000000000000000e+00  0.0000000000000000e+00  0.0000000000000000e+00  0.0000000000000000e+00  0.0000000000000000e+00  0.0000000000000000e+00  0.0000000000000000e+00  0.0000000000000000e+00  0.0000000000000000e+00  0.0000000000000000e+00  0.0000000000000000e+00  0.0000000000000000e+00  0.0000000000000000e+00  0.0000000000000000e+00  0.0000000000000000e+00  0.0000000000000000e+00  0.0000000000000000e+00  0.0000000000000000e+00  0.0000000000000000e+00  4.2237467272662555e-22  8.3935982899786101e-22  1.2466957477107802e-21  1.6400672980517446e-21  2.0152474559217828e-21  2.3681782616034883e-21  2.6950295130449115e-21  2.9922473562553549e-21  3.2565966660568739e-21  3.4851984574407473e-21  3.6755626455805932e-21  3.8256161368046790e-21  3.9337261164139911e-21  3.9987183733810696e-21  4.0198905172775624e-21  3.9970199785788792e-21  3.9303667303973430e-21  3.8206707231694484e-21  3.6691440817148954e-21  3.4774581757495695e-21  3.2477257412375753e-21  2.9824783041511983e-21  2.6846392483499184e-21  2.3574929946689035e-21  2.0046509666079675e-21  1.6300154352462662e-21  1.2377433230678433e-21  8.3221472925381093e-22  4.1801913859859630e-22  0.0000000000000000e+00  0.0000000000000000e+00  8.3935982899786063e-22  1.6684797061563519e-21  2.4785837024511967e-21  3.2609924244420027e-21  4.0072629869909396e-21  4.7093089629876646e-21  5.3595043659534247e-21  5.9507758975672007e-21  6.4766855587935851e-21  6.9315043515441685e-21  7.3102771151731930e-21  7.6088782440539320e-21  7.8240579305520260e-21  7.9534785757888679e-21  7.9957410614639274e-21  7.9504006561584736e-21  7.8179724268240659e-21  7.5999261340732019e-21  7.2986707050376572e-21  6.9175284986613497e-21  6.4606997061914049e-21  5.9332173682730873e-21  5.3408936490447945e-21  4.6902582078868756e-21  3.9884897954068437e-21  3.2433426646735490e-21  2.4630702160620034e-21  1.6563497857112664e-21  8.3221472925381102e-22  0.0000000000000000e+00  0.0000000000000000e+00  1.2466957477107804e-21  2.4785837024511979e-21  3.6824254043411152e-21  4.8452268345765141e-21  5.9543936724377054e-21  6.9978834631980003e-21  7.9643483665889707e-21  8.8432669477595162e-21  9.6250644934940060e-21  1.0301221358893327e-20  1.0864368728657445e-20  1.1308371112321299e-20  1.1628394903820152e-20  1.1820962405022998e-20  1.1883990821702718e-20  1.1816815875295619e-20  1.1620199825812887e-20  1.1296323864645711e-20  1.0848765007162972e-20  1.0282457792040592e-20  9.6036412770018597e-21  8.8197920111148827e-21  7.9395438672555554e-21  6.9725958447630144e-21  5.9296092170011734e-21  4.8220957162292723e-21  3.6622987982104632e-21  2.4630702160620042e-21  1.2377433230678441e-21  0.0000000000000000e+00  0.0000000000000000e+00  1.6400672980517442e-21  3.2609924244420016e-21  4.8452268345765141e-21  6.3755907985005180e-21  7.8354617127743595e-21  9.2089614480164992e-21  1.0481136261371224e-20  1.1638125761799542e-20  1.2667318798017561e-20  1.3557494703689562e-20  1.4298948579648797e-20  1.4883599444042644e-20  1.5305080222904896e-20  1.5558808711370868e-20  1.5642038813703892e-20  1.5553891565900656e-20  1.5295365653810525e-20  1.4869327358561118e-20  1.4280480086395090e-20  1.3535313869312588e-20  1.2642035454479848e-20  1.1610479833242385e-20  1.0452004294152729e-20  9.1793663168494233e-21  7.8065868467874393e-21  6.3488006759867261e-21  4.8220957162292730e-21  3.2433426646735509e-21  1.6300154352462671e-21  0.0000000000000000e+00  0.0000000000000000e+00  2.0152474559217828e-21  4.0072629869909396e-21  5.9543936724377039e-21  7.8354617127743580e-21  9.6299924909582889e-21  1.1318439462697706e-20  1.2882400801162220e-20  1.4304823967771862e-20  1.5570195329050125e-20  1.6664712536231808e-20  1.7576437765102176e-20  1.8295430193062031e-20  1.8813856334071415e-20  1.9126077090797040e-20  1.9228710629110013e-20  1.9120670436205459e-20  1.8803178189251116e-20  1.8279751334250089e-20  1.7556165551821808e-20  1.6640392564830060e-20  1.5542514019088876e-20  1.4274612439212650e-20  1.2850640522133842e-20  1.1286270272363232e-20  9.5987236887003568e-21  7.8065868467874408e-21  5.9296092170011749e-21  3.9884897954068459e-21  2.0046509666079683e-21  0.0000000000000000e+00  0.0000000000000000e+00  2.3681782616034865e-21  4.7093089629876601e-21  6.9978834631979943e-21  9.2089614480164887e-21  1.1318439462697694e-20  1.3303313499372359e-20  1.5141931459928562e-20  1.6814231735669192e-20  1.8301964689614508e-20  1.9588894306095599e-20  2.0660977665422828e-20  2.1506520237791515e-20  2.2116305300135137e-20  2.2483696081949612e-20  2.2604709551293003e-20  2.2478061064014257e-20  2.2105179417926314e-20  2.1490192177272501e-20  2.0639881458532607e-20  1.9563610692819321e-20  1.8273223198661365e-20  1.6782913706764252e-20  1.5109074268538953e-20  1.3270116242632497e-20  1.1286270272363231e-20  9.1793663168494233e-21  6.9725958447630069e-21  4.6902582078868726e-21  2.3574929946689032e-21  0.0000000000000000e+00  0.0000000000000000e+00  2.6950295130449081e-21  5.3595043659534164e-21  7.9643483665889632e-21  1.0481136261371207e-20  1.2882400801162205e-20  1.5141931459928562e-20  1.7235060949626640e-20  1.9138935802437590e-20  2.0832767609263362e-20  2.2298061872922441e-20  2.3518821802162522e-20  2.4481724728427109e-20  2.5176269176341709e-20  2.5594890968114192e-20  2.5733047096103530e-20  2.5589266458415473e-20  2.5165166918937193e-20  2.4465438523534176e-20  2.3497793074938544e-20  2.2272880636111167e-20  2.0804173890775755e-20  1.9107821634691466e-20  1.7202472994992539e-20  1.5109074268538944e-20  1.2850640522133835e-20  1.0452004294152717e-20  7.9395438672555418e-21  5.3408936490447884e-21  2.6846392483499165e-21  0.0000000000000000e+00  0.0000000000000000e+00  2.9922473562553530e-21  5.9507758975671977e-21  8.8432669477595131e-21  1.1638125761799533e-20  1.4304823967771850e-20  1.6814231735669186e-20  1.9138935802437593e-20  2.1253539546543730e-20  2.3134941527550630e-20  2.4762589211672806e-20  2.6118704948245101e-20  2.7188481624322594e-20  2.7960245798441131e-20  2.8425586498411600e-20  2.8579448261476402e-20  2.8420187397210261e-20  2.7949590862155468e-20  2.7172857547320466e-20  2.6098542191513663e-20  2.4738462540531446e-20  2.3107570769356016e-20  2.1223790565972558e-20  1.9107821634691469e-20  1.6782913706764249e-20  1.4274612439212644e-20  1.1610479833242373e-20  8.8197920111148692e-21  5.9332173682730798e-21  2.9824783041511952e-21  0.0000000000000000e+00  0.0000000000000000e+00  3.2565966660568713e-21  6.4766855587935806e-21  9.6250644934940000e-21  1.2667318798017559e-20  1.5570195329050110e-20  1.8301964689614496e-20  2.0832767609263362e-20  2.3134941527550639e-20  2.5183323618345021e-20  2.6955526771996934e-20  2.8432185385140600e-20  2.9597168175427826e-20  3.0437755630349006e-20  3.0944780109731775e-20  3.1112727046739071e-20  3.0939796128918990e-20  3.0427921785587726e-20  2.9582752756591730e-20  2.8413590965851147e-20  2.6933290366128659e-20  2.5158116853896435e-20  2.3107570769356058e-20  2.0804173890775794e-20  1.8273223198661386e-20  1.5542514019088888e-20  1.2642035454479860e-20  9.6036412770018672e-21  6.4606997061914109e-21  3.2477257412375783e-21  0.0000000000000000e+00  0.0000000000000000e+00  3.4851984574407421e-21  6.9315043515441579e-21  1.0301221358893313e-20  1.3557494703689547e-20  1.6664712536231787e-20  1.9588894306095593e-20  2.2298061872922441e-20  2.4762589211672797e-20  2.6955526771996934e-20  2.8852896827821276e-20  3.0433956486069898e-20  3.1681425398490812e-20  3.2581675627609253e-20  3.3124881549620311e-20  3.3305128128001575e-20  3.3120476356962341e-20  3.2572985148902359e-20  3.1668689420059865e-20  3.0417534608473396e-20  2.8833268333014745e-20  2.6933290366128704e-20  2.4738462540531521e-20  2.2272880636111239e-20  1.9563610692819373e-20  1.6640392564830090e-20  1.3535313869312612e-20  1.0282457792040612e-20  6.9175284986613648e-21  3.4774581757495785e-21  0.0000000000000000e+00  0.0000000000000000e+00  3.6755626455805857e-21  7.3102771151731780e-21  1.0864368728657425e-20  1.4298948579648776e-20  1.7576437765102155e-20  2.0660977665422816e-20  2.3518821802162513e-20  2.6118704948245098e-20  2.8432185385140600e-20  3.0433956486069898e-20  3.2102124144044448e-20  3.3418446948115566e-20  3.4368536431779367e-20  3.4942015166708993e-20  3.5132630946608109e-20  3.4938325794361376e-20  3.4361259025400889e-20  3.3407784105942153e-20  3.2088379551014679e-20  3.0417534608473432e-20  2.8413590965851249e-20  2.6098542191513771e-20  2.3497793074938664e-20  2.0639881458532689e-20  1.7556165551821857e-20  1.4280480086395126e-20  1.0848765007163005e-20  7.2986707050376858e-21  3.6691440817149104e-21  0.0000000000000000e+00  0.0000000000000000e+00  3.8256161368046685e-21  7.6088782440539079e-21  1.1308371112321264e-20  1.4883599444042605e-20  1.8295430193061986e-20  2.1506520237791482e-20  2.4481724728427097e-20  2.7188481624322588e-20  2.9597168175427814e-20  3.1681425398490806e-20  3.3418446948115548e-20  3.4789229177268760e-20  3.5778779614040708e-20  3.6376281544526783e-20  3.6575212879270325e-20  3.6373417986820182e-20  3.5773131696804003e-20  3.4780955200750701e-20  3.3407784105942129e-20  3.1668689420059895e-20  2.9582752756591814e-20  2.7172857547320586e-20  2.4465438523534302e-20  2.1490192177272585e-20  1.8279751334250137e-20  1.4869327358561160e-20  1.1296323864645747e-20  7.5999261340732290e-21  3.8206707231694642e-21  0.0000000000000000e+00  0.0000000000000000e+00  3.9337261164139790e-21  7.8240579305520004e-21  1.1628394903820113e-20  1.5305080222904854e-20  1.8813856334071355e-20  2.2116305300135079e-20  2.5176269176341694e-20  2.7960245798441131e-20  3.0437755630348994e-20  3.2581675627609229e-20  3.4368536431779367e-20  3.5778779614040714e-20  3.6796972127578009e-20  3.7411975601349818e-20  3.7617068606684955e-20  3.7410020546688231e-20  3.6793116350772371e-20  3.5773131696803973e-20  3.4361259025400841e-20  3.2572985148902371e-20  3.0427921785587792e-20  2.7949590862155577e-20  2.5165166918937293e-20  2.2105179417926390e-20  1.8803178189251173e-20  1.5295365653810573e-20  1.1620199825812927e-20  7.8179724268240915e-21  3.9303667303973588e-21  0.0000000000000000e+00  0.0000000000000000e+00  3.9987183733810583e-21  7.9534785757888363e-21  1.1820962405022942e-20  1.5558808711370813e-20  1.9126077090796977e-20  2.2483696081949558e-20  2.5594890968114146e-20  2.8425586498411570e-20  3.0944780109731763e-20  3.3124881549620281e-20  3.4942015166708963e-20  3.6376281544526759e-20  3.7411975601349812e-20  3.8037758757578932e-20  3.8246783277249021e-20  3.8036767415843842e-20  3.7410020546688195e-20  3.6373417986820146e-20  3.4938325794361351e-20  3.3120476356962359e-20  3.0939796128919056e-20  2.8420187397210375e-20  2.5589266458415573e-20  2.2478061064014329e-20  1.9120670436205511e-20  1.5553891565900698e-20  1.1816815875295649e-20  7.9504006561584977e-21  3.9970199785788928e-21  0.0000000000000000e+00  0.0000000000000000e+00  4.0198905172775474e-21  7.9957410614638928e-21  1.1883990821702666e-20  1.5642038813703832e-20  1.9228710629109938e-20  2.2604709551292946e-20  2.5733047096103475e-20  2.8579448261476348e-20  3.1112727046739029e-20  3.3305128128001532e-20  3.5132630946608030e-20  3.6575212879270259e-20  3.7617068606684888e-20  3.8246783277248984e-20  3.8457457568668438e-20  3.8246783277249015e-20  3.7617068606684918e-20  3.6575212879270283e-20  3.5132630946608091e-20  3.3305128128001617e-20  3.1112727046739143e-20  2.8579448261476516e-20  2.5733047096103632e-20  2.2604709551293088e-20  1.9228710629110071e-20  1.5642038813703938e-20  1.1883990821702749e-20  7.9957410614639514e-21  4.0198905172775774e-21  0.0000000000000000e+00  0.0000000000000000e+00  3.9970199785788627e-21  7.9504006561584390e-21  1.1816815875295566e-20  1.5553891565900590e-20  1.9120670436205378e-20  2.2478061064014187e-20  2.5589266458415401e-20  2.8420187397210183e-20  3.0939796128918900e-20  3.3120476356962250e-20  3.4938325794361267e-20  3.6373417986820080e-20  3.7410020546688135e-20  3.8036767415843764e-20  3.8246783277248984e-20  3.8037758757578920e-20  3.7411975601349788e-20  3.6376281544526747e-20  3.4942015166708981e-20  3.3124881549620341e-20  3.0944780109731859e-20  2.8425586498411727e-20  2.5594890968114303e-20  2.2483696081949696e-20  1.9126077090797106e-20  1.5558808711370919e-20  1.1820962405023035e-20  7.9534785757888935e-21  3.9987183733810861e-21  0.0000000000000000e+00  0.0000000000000000e+00  3.9303667303973264e-21  7.8179724268240313e-21  1.1620199825812837e-20  1.5295365653810459e-20  1.8803178189251040e-20  2.2105179417926248e-20  2.5165166918937112e-20  2.7949590862155372e-20  3.0427921785587612e-20  3.2572985148902232e-20  3.4361259025400739e-20  3.5773131696803889e-20  3.6793116350772286e-20  3.7410020546688117e-20  3.7617068606684882e-20  3.7411975601349782e-20  3.6796972127577960e-20  3.5778779614040660e-20  3.4368536431779349e-20  3.2581675627609289e-20  3.0437755630349066e-20  2.7960245798441240e-20  2.5176269176341823e-20  2.2116305300135221e-20  1.8813856334071481e-20  1.5305080222904953e-20  1.1628394903820186e-20  7.8240579305520516e-21  3.9337261164140046e-21  0.0000000000000000e+00  0.0000000000000000e+00  3.8206707231694326e-21  7.5999261340731688e-21  1.1296323864645663e-20  1.4869327358561055e-20  1.8279751334250014e-20  2.1490192177272441e-20  2.4465438523534119e-20  2.7172857547320382e-20  2.9582752756591627e-20  3.1668689420059739e-20  3.3407784105941997e-20  3.4780955200750586e-20  3.5773131696803877e-20  3.6373417986820050e-20  3.6575212879270222e-20  3.6376281544526693e-20  3.5778779614040630e-20  3.4789229177268694e-20  3.3418446948115524e-20  3.1681425398490842e-20  2.9597168175427904e-20  2.7188481624322709e-20  2.4481724728427229e-20  2.1506520237791605e-20  1.8295430193062094e-20  1.4883599444042692e-20  1.1308371112321328e-20  7.6088782440539531e-21  3.8256161368046910e-21  0.0000000000000000e+00  0.0000000000000000e+00  3.6691440817148796e-21  7.2986707050376271e-21  1.0848765007162927e-20  1.4280480086395030e-20  1.7556165551821739e-20  2.0639881458532559e-20  2.3497793074938493e-20  2.6098542191513575e-20  2.8413590965851063e-20  3.0417534608473282e-20  3.2088379551014528e-20  3.3407784105941997e-20  3.4361259025400715e-20  3.4938325794361225e-20  3.5132630946607982e-20  3.4942015166708897e-20  3.4368536431779289e-20  3.3418446948115488e-20  3.2102124144044424e-20  3.0433956486069922e-20  2.8432185385140672e-20  2.6118704948245215e-20  2.3518821802162642e-20  2.0660977665422930e-20  1.7576437765102267e-20  1.4298948579648854e-20  1.0864368728657481e-20  7.3102771151732171e-21  3.6755626455806053e-21  0.0000000000000000e+00  0.0000000000000000e+00  3.4774581757495537e-21  6.9175284986613181e-21  1.0282457792040547e-20  1.3535313869312528e-20  1.6640392564829996e-20  1.9563610692819261e-20  2.2272880636111088e-20  2.4738462540531350e-20  2.6933290366128553e-20  2.8833268333014619e-20  3.0417534608473300e-20  3.1668689420059763e-20  3.2572985148902245e-20  3.3120476356962232e-20  3.3305128128001496e-20  3.3124881549620239e-20  3.2581675627609199e-20  3.1681425398490764e-20  3.0433956486069880e-20  2.8852896827821312e-20  2.6955526771997022e-20  2.4762589211672933e-20  2.2298061872922583e-20  1.9588894306095699e-20  1.6664712536231889e-20  1.3557494703689622e-20  1.0301221358893367e-20  6.9315043515441941e-21  3.4851984574407609e-21  0.0000000000000000e+00  0.0000000000000000e+00  3.2477257412375587e-21  6.4606997061913726e-21  9.6036412770018145e-21  1.2642035454479787e-20  1.5542514019088810e-20  1.8273223198661302e-20  2.0804173890775680e-20  2.3107570769355923e-20  2.5158116853896300e-20  2.6933290366128553e-20  2.8413590965851087e-20  2.9582752756591669e-20  3.0427921785587636e-20  3.0939796128918912e-20  3.1112727046739017e-20  3.0944780109731739e-20  3.0437755630348964e-20  2.9597168175427790e-20  2.8432185385140600e-20  2.6955526771996995e-20  2.5183323618345117e-20  2.3134941527550771e-20  2.0832767609263482e-20  1.8301964689614592e-20  1.5570195329050197e-20  1.2667318798017626e-20  9.6250644934940511e-21  6.4766855587936152e-21  3.2565966660568890e-21  0.0000000000000000e+00  0.0000000000000000e+00  2.9824783041511795e-21  5.9332173682730505e-21  8.8197920111148300e-21  1.1610479833242316e-20  1.4274612439212581e-20  1.6782913706764174e-20  1.9107821634691366e-20  2.1223790565972437e-20  2.3107570769355908e-20  2.4738462540531365e-20  2.6098542191513612e-20  2.7172857547320436e-20  2.7949590862155426e-20  2.8420187397210231e-20  2.8579448261476372e-20  2.8425586498411588e-20  2.7960245798441119e-20  2.7188481624322582e-20  2.6118704948245110e-20  2.4762589211672854e-20  2.3134941527550720e-20  2.1253539546543844e-20  1.9138935802437698e-20  1.6814231735669274e-20  1.4304823967771928e-20  1.1638125761799597e-20  8.8432669477595598e-21  5.9507758975672308e-21  2.9922473562553703e-21  0.0000000000000000e+00  0.0000000000000000e+00  2.6846392483499003e-21  5.3408936490447576e-21  7.9395438672554997e-21  1.0452004294152655e-20  1.2850640522133769e-20  1.5109074268538866e-20  1.7202472994992434e-20  1.9107821634691345e-20  2.0804173890775656e-20  2.2272880636111091e-20  2.3497793074938520e-20  2.4465438523534161e-20  2.5165166918937148e-20  2.5589266458415428e-20  2.5733047096103493e-20  2.5594890968114165e-20  2.5176269176341694e-20  2.4481724728427097e-20  2.3518821802162525e-20  2.2298061872922486e-20  2.0832767609263419e-20  1.9138935802437680e-20  1.7235060949626722e-20  1.5141931459928628e-20  1.2882400801162266e-20  1.0481136261371261e-20  7.9643483665889993e-21  5.3595043659534420e-21  2.6950295130449213e-21  0.0000000000000000e+00  0.0000000000000000e+00  2.3574929946688874e-21  4.6902582078868440e-21  6.9725958447629662e-21  9.1793663168493661e-21  1.1286270272363169e-20  1.3270116242632420e-20  1.5109074268538853e-20  1.6782913706764147e-20  1.8273223198661272e-20  1.9563610692819249e-20  2.0639881458532568e-20  2.1490192177272471e-20  2.2105179417926278e-20  2.2478061064014218e-20  2.2604709551292973e-20  2.2483696081949585e-20  2.2116305300135119e-20  2.1506520237791494e-20  2.0660977665422828e-20  1.9588894306095627e-20  1.8301964689614550e-20  1.6814231735669265e-20  1.5141931459928628e-20  1.3303313499372413e-20  1.1318439462697744e-20  9.2089614480165278e-21  6.9978834631980213e-21  4.7093089629876797e-21  2.3681782616034966e-21  0.0000000000000000e+00  0.0000000000000000e+00  2.0046509666079544e-21  3.9884897954068196e-21  5.9296092170011373e-21  7.8065868467873941e-21  9.5987236887003041e-21  1.1286270272363163e-20  1.2850640522133761e-20  1.4274612439212563e-20  1.5542514019088801e-20  1.6640392564830006e-20  1.7556165551821763e-20  1.8279751334250050e-20  1.8803178189251092e-20  1.9120670436205432e-20  1.9228710629109986e-20  1.9126077090797010e-20  1.8813856334071388e-20  1.8295430193062007e-20  1.7576437765102176e-20  1.6664712536231835e-20  1.5570195329050176e-20  1.4304823967771925e-20  1.2882400801162268e-20  1.1318439462697748e-20  9.6299924909583281e-21  7.8354617127743881e-21  5.9543936724377265e-21  4.0072629869909576e-21  2.0152474559217911e-21  0.0000000000000000e+00  0.0000000000000000e+00  1.6300154352462564e-21  3.2433426646735302e-21  4.8220957162292444e-21  6.3488006759866885e-21  7.8065868467873971e-21  9.1793663168493737e-21  1.0452004294152663e-20  1.1610479833242313e-20  1.2642035454479792e-20  1.3535313869312540e-20  1.4280480086395054e-20  1.4869327358561088e-20  1.5295365653810495e-20  1.5553891565900629e-20  1.5642038813703868e-20  1.5558808711370847e-20  1.5305080222904884e-20  1.4883599444042623e-20  1.4298948579648791e-20  1.3557494703689583e-20  1.2667318798017612e-20  1.1638125761799596e-20  1.04811362613