<?xml version="1.0"?>
<VTKFile type="UnstructuredGrid"  version="0.1"  >
<UnstructuredGrid>
<Piece  NumberOfPoints="961" NumberOfCells="1800">
<Points>
<DataArray  type="Float64"  NumberOfComponents="3"  format="ascii">-2 -2 0  -1.866666666666667 -2 0  -1.733333333333333 -2 0  -1.6 -2 0  -1.466666666666667 -2 0  -1.333333333333333 -2 0  -1.2 -2 0  -1.066666666666667 -2 0  -0.9333333333333333 -2 0  -0.8 -2 0  -0.6666666666666667 -2 0  -0.5333333333333334 -2 0  -0.3999999999999999 -2 0  -0.2666666666666666 -2 0  -0.1333333333333333 -2 0  0 -2 0  0.1333333333333333 -2 0  0.2666666666666666 -2 0  0.3999999999999999 -2 0  0.5333333333333332 -2 0  0.6666666666666665 -2 0  0.7999999999999998 -2 0  0.9333333333333331 -2 0  1.066666666666667 -2 0  1.2 -2 0  1.333333333333333 -2 0  1.466666666666667 -2 0  1.6 -2 0  1.733333333333333 -2 0  1.866666666666667 -2 0  2 -2 0  -2 -1.866666666666667 0  -1.866666666666667 -1.866666666666667 0  -1.733333333333333 -1.866666666666667 0  -1.6 -1.866666666666667 0  -1.466666666666667 -1.866666666666667 0  -1.333333333333333 -1.866666666666667 0  -1.2 -1.866666666666667 0  -1.066666666666667 -1.866666666666667 0  -0.9333333333333333 -1.866666666666667 0  -0.8 -1.866666666666667 0  -0.6666666666666667 -1.866666666666667 0  -0.5333333333333334 -1.866666666666667 0  -0.3999999999999999 -1.866666666666667 0  -0.2666666666666666 -1.866666666666667 0  -0.1333333333333333 -1.866666666666667 0  0 -1.866666666666667 0  0.1333333333333333 -1.866666666666667 0  0.2666666666666666 -1.866666666666667 0  0.3999999999999999 -1.866666666666667 0  0.5333333333333332 -1.866666666666667 0  0.6666666666666665 -1.866666666666667 0  0.7999999999999998 -1.866666666666667 0  0.9333333333333331 -1.866666666666667 0  1.066666666666667 -1.866666666666667 0  1.2 -1.866666666666667 0  1.333333333333333 -1.866666666666667 0  1.466666666666667 -1.866666666666667 0  1.6 -1.866666666666667 0  1.733333333333333 -1.866666666666667 0  1.866666666666667 -1.866666666666667 0  2 -1.866666666666667 0  -2 -1.733333333333333 0  -1.866666666666667 -1.733333333333333 0  -1.733333333333333 -1.733333333333333 0  -1.6 -1.733333333333333 0  -1.466666666666667 -1.733333333333333 0  -1.333333333333333 -1.733333333333333 0  -1.2 -1.733333333333333 0  -1.066666666666667 -1.733333333333333 0  -0.9333333333333333 -1.733333333333333 0  -0.8 -1.733333333333333 0  -0.6666666666666667 -1.733333333333333 0  -0.5333333333333334 -1.733333333333333 0  -0.3999999999999999 -1.733333333333333 0  -0.2666666666666666 -1.733333333333333 0  -0.1333333333333333 -1.733333333333333 0  0 -1.733333333333333 0  0.1333333333333333 -1.733333333333333 0  0.2666666666666666 -1.733333333333333 0  0.3999999999999999 -1.733333333333333 0  0.5333333333333332 -1.733333333333333 0  0.6666666666666665 -1.733333333333333 0  0.7999999999999998 -1.733333333333333 0  0.9333333333333331 -1.733333333333333 0  1.066666666666667 -1.733333333333333 0  1.2 -1.733333333333333 0  1.333333333333333 -1.733333333333333 0  1.466666666666667 -1.733333333333333 0  1.6 -1.733333333333333 0  1.733333333333333 -1.733333333333333 0  1.866666666666667 -1.733333333333333 0  2 -1.733333333333333 0  -2 -1.6 0  -1.866666666666667 -1.6 0  -1.733333333333333 -1.6 0  -1.6 -1.6 0  -1.466666666666667 -1.6 0  -1.333333333333333 -1.6 0  -1.2 -1.6 0  -1.066666666666667 -1.6 0  -0.9333333333333333 -1.6 0  -0.8 -1.6 0  -0.6666666666666667 -1.6 0  -0.5333333333333334 -1.6 0  -0.3999999999999999 -1.6 0  -0.2666666666666666 -1.6 0  -0.1333333333333333 -1.6 0  0 -1.6 0  0.1333333333333333 -1.6 0  0.2666666666666666 -1.6 0  0.3999999999999999 -1.6 0  0.5333333333333332 -1.6 0  0.6666666666666665 -1.6 0  0.7999999999999998 -1.6 0  0.9333333333333331 -1.6 0  1.066666666666667 -1.6 0  1.2 -1.6 0  1.333333333333333 -1.6 0  1.466666666666667 -1.6 0  1.6 -1.6 0  1.733333333333333 -1.6 0  1.866666666666667 -1.6 0  2 -1.6 0  -2 -1.466666666666667 0  -1.866666666666667 -1.466666666666667 0  -1.733333333333333 -1.466666666666667 0  -1.6 -1.466666666666667 0  -1.466666666666667 -1.466666666666667 0  -1.333333333333333 -1.466666666666667 0  -1.2 -1.466666666666667 0  -1.066666666666667 -1.466666666666667 0  -0.9333333333333333 -1.466666666666667 0  -0.8 -1.466666666666667 0  -0.6666666666666667 -1.466666666666667 0  -0.5333333333333334 -1.466666666666667 0  -0.3999999999999999 -1.466666666666667 0  -0.2666666666666666 -1.466666666666667 0  -0.1333333333333333 -1.466666666666667 0  0 -1.466666666666667 0  0.1333333333333333 -1.466666666666667 0  0.2666666666666666 -1.466666666666667 0  0.3999999999999999 -1.466666666666667 0  0.5333333333333332 -1.466666666666667 0  0.6666666666666665 -1.466666666666667 0  0.7999999999999998 -1.466666666666667 0  0.9333333333333331 -1.466666666666667 0  1.066666666666667 -1.466666666666667 0  1.2 -1.466666666666667 0  1.333333333333333 -1.466666666666667 0  1.466666666666667 -1.466666666666667 0  1.6 -1.466666666666667 0  1.733333333333333 -1.466666666666667 0  1.866666666666667 -1.466666666666667 0  2 -1.466666666666667 0  -2 -1.333333333333333 0  -1.866666666666667 -1.333333333333333 0  -1.733333333333333 -1.333333333333333 0  -1.6 -1.333333333333333 0  -1.466666666666667 -1.333333333333333 0  -1.333333333333333 -1.333333333333333 0  -1.2 -1.333333333333333 0  -1.066666666666667 -1.333333333333333 0  -0.9333333333333333 -1.333333333333333 0  -0.8 -1.333333333333333 0  -0.6666666666666667 -1.333333333333333 0  -0.5333333333333334 -1.333333333333333 0  -0.3999999999999999 -1.333333333333333 0  -0.2666666666666666 -1.333333333333333 0  -0.1333333333333333 -1.333333333333333 0  0 -1.333333333333333 0  0.1333333333333333 -1.333333333333333 0  0.2666666666666666 -1.333333333333333 0  0.3999999999999999 -1.333333333333333 0  0.5333333333333332 -1.333333333333333 0  0.6666666666666665 -1.333333333333333 0  0.7999999999999998 -1.333333333333333 0  0.9333333333333331 -1.333333333333333 0  1.066666666666667 -1.333333333333333 0  1.2 -1.333333333333333 0  1.333333333333333 -1.333333333333333 0  1.466666666666667 -1.333333333333333 0  1.6 -1.333333333333333 0  1.733333333333333 -1.333333333333333 0  1.866666666666667 -1.333333333333333 0  2 -1.333333333333333 0  -2 -1.2 0  -1.866666666666667 -1.2 0  -1.733333333333333 -1.2 0  -1.6 -1.2 0  -1.466666666666667 -1.2 0  -1.333333333333333 -1.2 0  -1.2 -1.2 0  -1.066666666666667 -1.2 0  -0.9333333333333333 -1.2 0  -0.8 -1.2 0  -0.6666666666666667 -1.2 0  -0.5333333333333334 -1.2 0  -0.3999999999999999 -1.2 0  -0.2666666666666666 -1.2 0  -0.1333333333333333 -1.2 0  0 -1.2 0  0.1333333333333333 -1.2 0  0.2666666666666666 -1.2 0  0.3999999999999999 -1.2 0  0.5333333333333332 -1.2 0  0.6666666666666665 -1.2 0  0.7999999999999998 -1.2 0  0.9333333333333331 -1.2 0  1.066666666666667 -1.2 0  1.2 -1.2 0  1.333333333333333 -1.2 0  1.466666666666667 -1.2 0  1.6 -1.2 0  1.733333333333333 -1.2 0  1.866666666666667 -1.2 0  2 -1.2 0  -2 -1.066666666666667 0  -1.866666666666667 -1.066666666666667 0  -1.733333333333333 -1.066666666666667 0  -1.6 -1.066666666666667 0  -1.466666666666667 -1.066666666666667 0  -1.333333333333333 -1.066666666666667 0  -1.2 -1.066666666666667 0  -1.066666666666667 -1.066666666666667 0  -0.9333333333333333 -1.066666666666667 0  -0.8 -1.066666666666667 0  -0.6666666666666667 -1.066666666666667 0  -0.5333333333333334 -1.066666666666667 0  -0.3999999999999999 -1.066666666666667 0  -0.2666666666666666 -1.066666666666667 0  -0.1333333333333333 -1.066666666666667 0  0 -1.066666666666667 0  0.1333333333333333 -1.066666666666667 0  0.2666666666666666 -1.066666666666667 0  0.3999999999999999 -1.066666666666667 0  0.5333333333333332 -1.066666666666667 0  0.6666666666666665 -1.066666666666667 0  0.7999999999999998 -1.066666666666667 0  0.9333333333333331 -1.066666666666667 0  1.066666666666667 -1.066666666666667 0  1.2 -1.066666666666667 0  1.333333333333333 -1.066666666666667 0  1.466666666666667 -1.066666666666667 0  1.6 -1.066666666666667 0  1.733333333333333 -1.066666666666667 0  1.866666666666667 -1.066666666666667 0  2 -1.066666666666667 0  -2 -0.9333333333333333 0  -1.866666666666667 -0.9333333333333333 0  -1.733333333333333 -0.9333333333333333 0  -1.6 -0.9333333333333333 0  -1.466666666666667 -0.9333333333333333 0  -1.333333333333333 -0.9333333333333333 0  -1.2 -0.9333333333333333 0  -1.066666666666667 -0.9333333333333333 0  -0.9333333333333333 -0.9333333333333333 0  -0.8 -0.9333333333333333 0  -0.6666666666666667 -0.9333333333333333 0  -0.5333333333333334 -0.9333333333333333 0  -0.3999999999999999 -0.9333333333333333 0  -0.2666666666666666 -0.9333333333333333 0  -0.1333333333333333 -0.9333333333333333 0  0 -0.9333333333333333 0  0.1333333333333333 -0.9333333333333333 0  0.2666666666666666 -0.9333333333333333 0  0.3999999999999999 -0.9333333333333333 0  0.5333333333333332 -0.9333333333333333 0  0.6666666666666665 -0.9333333333333333 0  0.7999999999999998 -0.9333333333333333 0  0.9333333333333331 -0.9333333333333333 0  1.066666666666667 -0.9333333333333333 0  1.2 -0.9333333333333333 0  1.333333333333333 -0.9333333333333333 0  1.466666666666667 -0.9333333333333333 0  1.6 -0.9333333333333333 0  1.733333333333333 -0.9333333333333333 0  1.866666666666667 -0.9333333333333333 0  2 -0.9333333333333333 0  -2 -0.8 0  -1.866666666666667 -0.8 0  -1.733333333333333 -0.8 0  -1.6 -0.8 0  -1.466666666666667 -0.8 0  -1.333333333333333 -0.8 0  -1.2 -0.8 0  -1.066666666666667 -0.8 0  -0.9333333333333333 -0.8 0  -0.8 -0.8 0  -0.6666666666666667 -0.8 0  -0.5333333333333334 -0.8 0  -0.3999999999999999 -0.8 0  -0.2666666666666666 -0.8 0  -0.1333333333333333 -0.8 0  0 -0.8 0  0.1333333333333333 -0.8 0  0.2666666666666666 -0.8 0  0.3999999999999999 -0.8 0  0.5333333333333332 -0.8 0  0.6666666666666665 -0.8 0  0.7999999999999998 -0.8 0  0.9333333333333331 -0.8 0  1.066666666666667 -0.8 0  1.2 -0.8 0  1.333333333333333 -0.8 0  1.466666666666667 -0.8 0  1.6 -0.8 0  1.733333333333333 -0.8 0  1.866666666666667 -0.8 0  2 -0.8 0  -2 -0.6666666666666667 0  -1.866666666666667 -0.
[...]
<PointData  Scalars="f_10422"> 
<DataArray  type="Float64"  Name="f_10422"  format="ascii">0.0000000000000000e+00  0.0000000000000000e+00  0.0000000000000000e+00  0.0000000000000000e+00  0.0000000000000000e+00  0.0000000000000000e+00  0.0000000000000000e+00  0.0000000000000000e+00  0.0000000000000000e+00  0.0000000000000000e+00  0.0000000000000000e+00  0.0000000000000000e+00  0.0000000000000000e+00  0.0000000000000000e+00  0.0000000000000000e+00  0.0000000000000000e+00  0.0000000000000000e+00  0.0000000000000000e+00  0.0000000000000000e+00  0.0000000000000000e+00  0.0000000000000000e+00  0.0000000000000000e+00  0.0000000000000000e+00  0.0000000000000000e+00  0.0000000000000000e+00  0.0000000000000000e+00  0.0000000000000000e+00  0.0000000000000000e+00  0.0000000000000000e+00  0.0000000000000000e+00  0.0000000000000000e+00  0.0000000000000000e+00  1.4128204979583273e-21  2.8076133540765207e-21  4.1701300310288257e-21  5.4859366489958747e-21  6.7408940403665093e-21  7.9214285487668028e-21  9.0147283549288432e-21  1.0008906008943770e-20  1.0893140191589586e-20  1.1657800853300634e-20  1.2294558794644434e-20  1.2796479629108889e-20  1.3158101679597586e-20  1.3375497273559013e-20  1.3446316952896287e-20  1.3369816234554769e-20  1.3146864714572583e-20  1.2779937487247888e-20  1.2273089044722230e-20  1.1631910028543844e-20  1.0863467426554572e-20  9.9762290565846647e-21  8.9799734799607499e-21  7.8856869072192970e-21  6.7054493551719383e-21  5.4523137100952831e-21  4.1401846534797443e-21  2.7837133808295827e-21  1.3982514712316236e-21  0.0000000000000000e+00  0.0000000000000000e+00  2.8076133540765218e-21  5.5809746215793480e-21  8.2907287932838861e-21  1.0907843766286638e-20  1.3404078545199246e-20  1.5752384467508420e-20  1.7927253019778021e-20  1.9905024400648271e-20  2.1664163850602597e-20  2.3185508180049592e-20  2.4452482643903787e-20  2.5451287313873311e-20  2.6171051758711421e-20  2.6603956836256037e-20  2.6745322571258448e-20  2.6593661361111150e-20  2.6150696076985137e-20  2.5421342988852338e-20  2.4413659828034307e-20  2.3138759705994943e-20  2.1610692035903307e-20  1.9846292067242492e-20  1.7865001175555251e-20  1.5688660719267946e-20  1.3341283231950721e-20  1.0848806271865070e-20  8.2388370180882777e-21  5.5404006919618583e-21  2.7837133808295835e-21  0.0000000000000000e+00  0.0000000000000000e+00  4.1701300310288257e-21  8.2907287932838861e-21  1.2317514352530552e-20  1.6207022416748987e-20  1.9917125662452263e-20  2.3407542728133152e-20  2.6640315700180736e-20  2.9580250946529900e-20  3.2195321567921293e-20  3.4457029811705356e-20  3.6340727388167321e-20  3.7825891412641505e-20  3.8896353733559506e-20  3.9540481638255361e-20  3.9751308292382439e-20  3.9526611719975434e-20  3.8868941639656513e-20  3.7785594018978747e-20  3.6288533781411688e-20  3.4394266692664066e-20  3.2123662064294019e-20  2.9501728549659541e-20  2.6557345987831207e-20  2.3322957008447663e-20  1.9834222995856695e-20  1.6129650073538358e-20  1.2250191940625142e-20  8.2388370180882792e-21  4.1401846534797466e-21  0.0000000000000000e+00  0.0000000000000000e+00  5.4859366489958724e-21  1.0907843766286632e-20  1.6207022416748984e-20  2.1326007330335397e-20  2.6209196795140702e-20  3.0803479324828259e-20  3.5058835456130118e-20  3.8928902928631411e-20  4.2371498121515795e-20  4.5349088511117617e-20  4.7829211733193143e-20  4.9784837339322462e-20  5.1194667810519874e-20  5.2043375918670861e-20  5.2321776121656944e-20  5.2026928332297105e-20  5.1162173100889791e-20  4.9737097983203511e-20  4.7767435619424718e-20  4.5274894816530463e-20  4.2286926701131052e-20  3.8836428788791273e-20  3.4961390597122699e-20  3.0704485207395273e-20  2.6112611925885230e-20  2.1236395815549332e-20  1.6129650073538364e-20  1.0848806271865077e-20  5.4523137100952884e-21  0.0000000000000000e+00  0.0000000000000000e+00  6.7408940403665063e-21  1.3404078545199238e-20  1.9917125662452251e-20  2.6209196795140693e-20  3.2211805453629859e-20  3.7859569501577564e-20  4.3090935820805514e-20  4.7848864589554386e-20  5.2081463540629387e-20  5.5742564561890757e-20  5.8792236275250089e-20  6.1197227165307493e-20  6.2931334643786804e-20  6.3975696234273366e-20  6.4318999884017559e-20  6.3957611266292103e-20  6.2895616825327432e-20  6.1144782228277720e-20  5.8724426815282675e-20  5.5661215569337861e-20  5.1988871051900996e-20  4.7747808656092341e-20  4.2984699400561610e-20  3.7751965295070869e-20  3.2107212996673501e-20  2.6112611925885251e-20  1.9834222995856707e-20  1.3341283231950732e-20  6.7054493551719435e-21  0.0000000000000000e+00  0.0000000000000000e+00  7.9214285487667908e-21  1.5752384467508390e-20  2.3407542728133113e-20  3.0803479324828217e-20  3.7859569501577534e-20  4.4498866092863118e-20  5.0648943998385210e-20  5.6242698219147650e-20  6.1219084703813733e-20  6.5523794855719407e-20  6.9109855865958683e-20  7.1938150163121905e-20  7.3977848305688937e-20  7.5206750654302014e-20  7.5611534181954603e-20  7.5187901823253380e-20  7.3940632829815288e-20  7.1883533681399024e-20  6.9039290191811416e-20  6.5439222533073709e-20  6.1122945966852139e-20  5.6137941101712236e-20  5.0539038465458894e-20  4.4387823059682884e-20  3.7751965295070869e-20  3.0704485207395279e-20  2.3322957008447657e-20  1.5688660719267943e-20  7.8856869072193000e-21  0.0000000000000000e+00  0.0000000000000000e+00  9.0147283549288252e-21  1.7927253019777976e-20  2.6640315700180697e-20  3.5058835456130070e-20  4.3090935820805484e-20  5.0648943998385204e-20  5.7650349240883039e-20  6.4018707931129708e-20  6.9684483961990625e-20  7.4585814237961531e-20  7.8669190355148444e-20  8.1890048705836462e-20  8.4213262421333058e-20  8.5613529734925047e-20  8.6075654531096749e-20  8.5594716053361128e-20  8.4176125969155483e-20  8.1835572228925179e-20  7.8598850396844977e-20  7.4501584359069196e-20  6.9588839515955605e-20  6.3914632718274513e-20  5.7541344290381610e-20  5.0539038465458864e-20  4.2984699400561598e-20  3.4961390597122675e-20  2.6557345987831183e-20  1.7865001175555239e-20  8.9799734799607484e-21  0.0000000000000000e+00  0.0000000000000000e+00  1.0008906008943759e-20  1.9905024400648247e-20  2.9580250946529870e-20  3.8928902928631381e-20  4.7848864589554356e-20  5.6242698219147650e-20  6.4018707931129708e-20  7.1091943396330581e-20  7.7385131542548721e-20  8.2829525252847115e-20  8.7365659244653194e-20  9.0944004523841452e-20  9.3525514058363794e-20  9.5082053599924063e-20  9.5596712898282681e-20  9.5063993897625638e-20  9.3489873871200886e-20  9.0891742829010625e-20  8.7298215910937991e-20  8.2748822839238886e-20  7.7293577832728908e-20  7.0992434660939285e-20  6.3914632718274549e-20  5.6137941101712236e-20  4.7747808656092317e-20  3.8836428788791255e-20  2.9501728549659535e-20  1.9846292067242486e-20  9.9762290565846587e-21  0.0000000000000000e+00  0.0000000000000000e+00  1.0893140191589579e-20  2.1664163850602579e-20  3.2195321567921257e-20  4.2371498121515753e-20  5.2081463540629332e-20  6.1219084703813697e-20  6.9684483961990613e-20  7.7385131542548733e-20  8.4236859149327212e-20  9.0164783108078279e-20  9.5104126520097625e-20  9.9000931116029844e-20  1.0181265081260341e-19  1.0350862034793177e-19  1.0407039379339308e-19  1.0349194920094206e-19  1.0177975713230102e-19  9.8952712317571047e-20  9.5041929190531911e-20  9.0090403529850173e-20  8.4152543881864989e-20  7.7293577832729089e-20  6.9588839515955761e-20  6.1122945966852224e-20  5.1988871051901050e-20  4.2286926701131124e-20  3.2123662064294067e-20  2.1610692035903340e-20  1.0863467426554590e-20  0.0000000000000000e+00  0.0000000000000000e+00  1.1657800853300615e-20  2.3185508180049553e-20  3.4457029811705308e-20  4.5349088511117568e-20  5.5742564561890709e-20  6.5523794855719371e-20  7.4585814237961507e-20  8.2829525252847139e-20  9.0164783108078315e-20  9.6511383603264633e-20  1.0179994287991043e-19  1.0597265910519124e-19  1.0898394756332622e-19  1.1080094207266861e-19  1.1140385715510002e-19  1.1078620694083769e-19  1.0895487838080408e-19  1.0593005794430090e-19  1.0174501258512372e-19  9.6445727346870892e-20  9.0090403529850330e-20  8.2748822839239187e-20  7.4501584359069497e-20  6.5439222533073914e-20  5.5661215569338005e-20  4.5274894816530584e-20  3.4394266692664151e-20  2.3138759705995004e-20  1.1631910028543878e-20  0.0000000000000000e+00  0.0000000000000000e+00  1.2294558794644416e-20  2.4452482643903745e-20  3.6340727388167260e-20  4.7829211733193065e-20  5.8792236275250053e-20  6.9109855865958659e-20  7.8669190355148396e-20  8.7365659244653170e-20  9.5104126520097625e-20  1.0179994287991044e-19  1.0737987371715313e-19  1.1178290249611905e-19  1.1496090057244703e-19  1.1687915600812792e-19  1.1751675551033597e-19  1.1686681525662477e-19  1.1493655804064427e-19  1.1174723586418807e-19  1.0733389879483302e-19  1.0174501258512386e-19  9.5041929190532260e-20  8.7298215910938425e-20  7.8598850396845386e-20  6.9039290191811692e-20  5.8724426815282892e-20  4.7767435619424887e-20  3.6288533781411820e-20  2.4413659828034391e-20  1.2273089044722277e-20  0.0000000000000000e+00  0.0000000000000000e+00  1.2796479629108860e-20  2.5451287313873251e-20  3.7825891412641415e-20  4.9784837339322330e-20  6.1197227165307361e-20  7.1938150163121808e-20  8.1890048705836378e-20  9.0944004523841404e-20  9.9000931116029796e-20  1.0597265910519121e-19  1.1178290249611900e-19  1.1636809511451760e-19  1.1967808795052249e-19  1.2167669967956139e-19  1.2234211426419437e-19  1.2166712123348918e-19  1.1965919597200664e-19  1.1634041910935171e-19  1.1174723586418799e-19  1.0593005794430102e-19  9.8952712317571347e-20  9.0891742829011058e-20  8.1835572228925588e-20  7.1883533681399301e-20  6.1144782228277888e-20  4.9737097983203661e-20  3.7785594018978873e-20  2.5421342988852431e-20  1.2779937487247941e-20  0.0000000000000000e+00  0.0000000000000000e+00  1.3158101679597546e-20  2.6171051758711337e-20  3.8896353733559392e-20  5.1194667810519736e-20  6.2931334643786611e-20  7.3977848305688804e-20  8.4213262421333010e-20  9.3525514058363770e-20  1.0181265081260334e-19  1.0898394756332617e-19  1.1496090057244700e-19  1.1967808795052249e-19  1.2308388698839301e-19  1.2514104043571340e-19  1.2582706547612317e-19  1.2513450088332339e-19  1.2307098962295348e-19  1.1965919597200659e-19  1.1493655804064420e-19  1.0895487838080418e-19  1.0177975713230129e-19  9.3489873871201331e-20  8.4176125969155880e-20  7.3940632829815517e-20  6.2895616825327601e-20  5.1162173100889912e-20  3.8868941639656639e-20  2.6150696076985221e-20  1.3146864714572631e-20  0.0000000000000000e+00  0.0000000000000000e+00  1.3375497273558965e-20  2.6603956836255941e-20  3.9540481638255204e-20  5.2043375918670705e-20  6.3975696234273209e-20  7.5206750654301881e-20  8.5613529734924902e-20  9.5082053599923955e-20  1.0350862034793167e-19  1.1080094207266851e-19  1.1687915600812775e-19  1.2167669967956134e-19  1.2514104043571330e-19  1.2723425133941205e-19  1.2793342708321181e-19  1.2723093535477985e-19  1.2513450088332324e-19  1.2166712123348906e-19  1.1686681525662468e-19  1.1078620694083779e-19  1.0349194920094230e-19  9.5063993897626071e-20  8.5594716053361477e-20  7.5187901823253609e-20  6.3957611266292248e-20  5.2026928332297225e-20  3.9526611719975524e-20  2.6593661361111219e-20  1.3369816234554808e-20  0.0000000000000000e+00  0.0000000000000000e+00  1.3446316952896231e-20  2.6745322571258328e-20  3.9751308292382270e-20  5.2321776121656745e-20  6.4318999884017354e-20  7.5611534181954447e-20  8.6075654531096604e-20  9.5596712898282560e-20  1.0407039379339285e-19  1.1140385715509980e-19  1.1751675551033566e-19  1.2234211426419425e-19  1.2582706547612300e-19  1.2793342708321169e-19  1.2863812122452657e-19  1.2793342708321172e-19  1.2582706547612302e-19  1.2234211426419421e-19  1.1751675551033588e-19  1.1140385715510007e-19  1.0407039379339332e-19  9.5596712898283078e-20  8.6075654531097110e-20  7.5611534181954832e-20  6.4318999884017727e-20  5.2321776121657052e-20  3.9751308292382511e-20  2.6745322571258487e-20  1.3446316952896321e-20  0.0000000000000000e+00  0.0000000000000000e+00  1.3369816234554716e-20  2.6593661361111048e-20  3.9526611719975277e-20  5.2026928332296912e-20  6.3957611266291875e-20  7.5187901823253223e-20  8.5594716053360983e-20  9.5063993897625458e-20  1.0349194920094175e-19  1.1078620694083741e-19  1.1686681525662446e-19  1.2166712123348894e-19  1.2513450088332310e-19  1.2723093535477960e-19  1.2793342708321164e-19  1.2723425133941195e-19  1.2514104043571323e-19  1.2167669967956122e-19  1.1687915600812782e-19  1.1080094207266866e-19  1.0350862034793196e-19  9.5082053599924424e-20  8.5613529734925324e-20  7.5206750654302230e-20  6.3975696234273571e-20  5.2043375918671018e-20  3.9540481638255463e-20  2.6603956836256107e-20  1.3375497273559050e-20  0.0000000000000000e+00  0.0000000000000000e+00  1.3146864714572530e-20  2.6150696076985041e-20  3.8868941639656380e-20  5.1162173100889599e-20  6.2895616825327216e-20  7.3940632829815108e-20  8.4176125969155290e-20  9.3489873871200657e-20  1.0177975713230065e-19  1.0895487838080372e-19  1.1493655804064386e-19  1.1965919597200635e-19  1.2307098962295315e-19  1.2513450088332290e-19  1.2582706547612288e-19  1.2514104043571323e-19  1.2308388698839284e-19  1.1967808795052232e-19  1.1496090057244691e-19  1.0898394756332622e-19  1.0181265081260357e-19  9.3525514058364156e-20  8.4213262421333407e-20  7.3977848305689202e-20  6.2931334643787009e-20  5.1194667810520061e-20  3.8896353733559627e-20  2.6171051758711490e-20  1.3158101679597620e-20  0.0000000000000000e+00  0.0000000000000000e+00  1.2779937487247846e-20  2.5421342988852248e-20  3.7785594018978620e-20  4.9737097983203360e-20  6.1144782228277575e-20  7.1883533681398892e-20  8.1835572228925010e-20  9.0891742829010384e-20  9.8952712317570709e-20  1.0593005794430054e-19  1.1174723586418761e-19  1.1634041910935135e-19  1.1965919597200623e-19  1.2166712123348874e-19  1.2234211426419399e-19  1.2167669967956105e-19  1.1967808795052223e-19  1.1636809511451741e-19  1.1178290249611890e-19  1.0597265910519125e-19  9.9000931116030073e-20  9.0944004523841813e-20  8.1890048705836787e-20  7.1938150163122145e-20  6.1197227165307698e-20  4.9784837339322613e-20  3.7825891412641619e-20  2.5451287313873380e-20  1.2796479629108928e-20  0.0000000000000000e+00  0.0000000000000000e+00  1.2273089044722188e-20  2.4413659828034220e-20  3.6288533781411573e-20  4.7767435619424610e-20  5.8724426815282567e-20  6.9039290191811295e-20  7.8598850396844832e-20  8.7298215910937750e-20  9.5041929190531634e-20  1.0174501258512336e-19  1.0733389879483259e-19  1.1174723586418759e-19  1.1493655804064376e-19  1.1686681525662429e-19  1.1751675551033549e-19  1.1687915600812754e-19  1.1496090057244672e-19  1.1178290249611876e-19  1.0737987371715298e-19  1.0179994287991048e-19  9.5104126520097854e-20  8.7365659244653579e-20  7.8669190355148805e-20  6.9109855865959008e-20  5.8792236275250390e-20  4.7829211733193324e-20  3.6340727388167435e-20  2.4452482643903860e-20  1.2294558794644473e-20  0.0000000000000000e+00  0.0000000000000000e+00  1.1631910028543802e-20  2.3138759705994859e-20  3.4394266692663952e-20  4.5274894816530331e-20  5.5661215569337729e-20  6.5439222533073577e-20  7.4501584359069028e-20  8.2748822839238621e-20  9.0090403529849812e-20  9.6445727346870483e-20  1.0174501258512344e-19  1.0593005794430062e-19  1.0895487838080370e-19  1.1078620694083736e-19  1.1140385715509966e-19  1.1080094207266829e-19  1.0898394756332596e-19  1.0597265910519101e-19  1.0179994287991033e-19  9.6511383603264705e-20  9.0164783108078580e-20  8.2829525252847621e-20  7.4585814237961952e-20  6.5523794855719720e-20  5.5742564561891010e-20  4.5349088511117797e-20  3.4457029811705483e-20  2.3185508180049674e-20  1.1657800853300673e-20  0.0000000000000000e+00  0.0000000000000000e+00  1.0863467426554530e-20  2.1610692035903229e-20  3.2123662064293911e-20  4.2286926701130913e-20  5.1988871051900809e-20  6.1122945966851995e-20  6.9588839515955424e-20  7.7293577832728631e-20  8.4152543881864568e-20  9.0090403529849896e-20  9.5041929190531827e-20  9.8952712317570902e-20  1.0177975713230077e-19  1.0349194920094179e-19  1.0407039379339280e-19  1.0350862034793156e-19  1.0181265081260323e-19  9.9000931116029724e-20  9.5104126520097613e-20  9.0164783108078447e-20  8.4236859149327525e-20  7.7385131542549167e-20  6.9684483961991046e-20  6.1219084703814046e-20  5.2081463540629633e-20  4.2371498121515994e-20  3.2195321567921426e-20  2.1664163850602688e-20  1.0893140191589631e-20  0.0000000000000000e+00  0.0000000000000000e+00  9.9762290565846166e-21  1.9846292067242401e-20  2.9501728549659420e-20  3.8836428788791099e-20  4.7747808656092136e-20  5.6137941101712044e-20  6.3914632718274248e-20  7.0992434660938924e-20  7.7293577832728619e-20  8.2748822839238705e-20  8.7298215910937907e-20  9.0891742829010601e-20  9.3489873871200778e-20  9.5063993897625554e-20  9.5596712898282596e-20  9.5082053599923967e-20  9.3525514058363734e-20  9.0944004523841392e-20  8.7365659244653218e-20  8.2829525252847308e-20  7.7385131542549034e-20  7.1091943396330991e-20  6.4018707931130081e-20  5.6242698219147963e-20  4.7848864589554639e-20  3.8928902928631609e-20  2.9580250946530039e-20  1.9905024400648359e-20  1.0008906008943818e-20  0.0000000000000000e+00  0.0000000000000000e+00  8.9799734799607003e-21  1.7865001175555148e-20  2.6557345987831069e-20  3.4961390597122506e-20  4.2984699400561394e-20  5.0539038465458671e-20  5.7541344290381345e-20  6.3914632718274200e-20  6.9588839515955340e-20  7.4501584359069040e-20  7.8598850396844965e-20  8.1835572228925167e-20  8.4176125969155375e-20  8.5594716053361019e-20  8.6075654531096616e-20  8.5613529734924927e-20  8.4213262421332986e-20  8.1890048705836353e-20  7.8669190355148408e-20  7.4585814237961651e-20  6.9684483961990854e-20  6.4018707931130009e-20  5.7650349240883304e-20  5.0648943998385421e-20  4.3090935820805700e-20  3.5058835456130251e-20  2.6640315700180839e-20  1.7927253019778072e-20  9.0147283549288748e-21  0.0000000000000000e+00  0.0000000000000000e+00  7.8856869072192534e-21  1.5688660719267858e-20  2.3322957008447536e-20  3.0704485207395117e-20  3.7751965295070701e-20  4.4387823059682685e-20  5.0539038465458635e-20  5.6137941101711947e-20  6.1122945966851886e-20  6.5439222533073553e-20  6.9039290191811331e-20  7.1883533681398964e-20  7.3940632829815204e-20  7.5187901823253259e-20  7.5611534181954483e-20  7.5206750654301881e-20  7.3977848305688841e-20  7.1938150163121808e-20  6.9109855865958659e-20  6.5523794855719479e-20  6.1219084703813877e-20  5.6242698219147891e-20  5.0648943998385433e-20  4.4498866092863298e-20  3.7859569501577703e-20  3.0803479324828367e-20  2.3407542728133231e-20  1.5752384467508468e-20  7.9214285487668284e-21  0.0000000000000000e+00  0.0000000000000000e+00  6.7054493551718976e-21  1.3341283231950652e-20  1.9834222995856595e-20  2.6112611925885106e-20  3.2107212996673350e-20  3.7751965295070689e-20  4.2984699400561382e-20  4.7747808656092088e-20  5.1988871051900791e-20  5.5661215569337717e-20  5.8724426815282603e-20  6.1144782228277648e-20  6.2895616825327396e-20  6.3957611266291983e-20  6.4318999884017486e-20  6.3975696234273282e-20  6.2931334643786708e-20  6.1197227165307409e-20  5.8792236275250102e-20  5.5742564561890829e-20  5.2081463540629543e-20  4.7848864589554579e-20  4.3090935820805682e-20  3.7859569501577697e-20  3.2211805453629979e-20  2.6209196795140802e-20  1.9917125662452341e-20  1.3404078545199295e-20  6.7408940403665342e-21  0.0000000000000000e+00  0.0000000000000000e+00  5.4523137100952545e-21  1.0848806271865014e-20  1.6129650073538279e-20  2.1236395815549229e-20  2.6112611925885124e-20  3.0704485207395147e-20  3.4961390597122524e-20  3.8836428788791075e-20  4.2286926701130931e-20  4.5274894816530349e-20  4.7767435619424652e-20  4.9737097983203445e-20  5.1162173100889689e-20  5.2026928332297020e-20  5.2321776121656847e-20  5.2043375918670777e-20  5.1194667810519808e-20  4.9784837339322396e-20  4.7829211733193119e-20  4.5349088511117671e-20  4.2371498121515933e-20  3.8928902928631579e-20  3.50588354561