<?xml version="1.0"?>
<VTKFile type="UnstructuredGrid"  version="0.1"  >
<UnstructuredGrid>
<Piece  NumberOfPoints="961" NumberOfCells="1800">
<Points>
<DataArray  type="Float64"  NumberOfComponents="3"  format="ascii">-2 -2 0  -1.866666666666667 -2 0  -1.733333333333333 -2 0  -1.6 -2 0  -1.466666666666667 -2 0  -1.333333333333333 -2 0  -1.2 -2 0  -1.066666666666667 -2 0  -0.9333333333333333 -2 0  -0.8 -2 0  -0.6666666666666667 -2 0  -0.5333333333333334 -2 0  -0.3999999999999999 -2 0  -0.2666666666666666 -2 0  -0.1333333333333333 -2 0  0 -2 0  0.1333333333333333 -2 0  0.2666666666666666 -2 0  0.3999999999999999 -2 0  0.5333333333333332 -2 0  0.6666666666666665 -2 0  0.7999999999999998 -2 0  0.9333333333333331 -2 0  1.066666666666667 -2 0  1.2 -2 0  1.333333333333333 -2 0  1.466666666666667 -2 0  1.6 -2 0  1.733333333333333 -2 0  1.866666666666667 -2 0  2 -2 0  -2 -1.866666666666667 0  -1.866666666666667 -1.866666666666667 0  -1.733333333333333 -1.866666666666667 0  -1.6 -1.866666666666667 0  -1.466666666666667 -1.866666666666667 0  -1.333333333333333 -1.866666666666667 0  -1.2 -1.866666666666667 0  -1.066666666666667 -1.866666666666667 0  -0.9333333333333333 -1.866666666666667 0  -0.8 -1.866666666666667 0  -0.6666666666666667 -1.866666666666667 0  -0.5333333333333334 -1.866666666666667 0  -0.3999999999999999 -1.866666666666667 0  -0.2666666666666666 -1.866666666666667 0  -0.1333333333333333 -1.866666666666667 0  0 -1.866666666666667 0  0.1333333333333333 -1.866666666666667 0  0.2666666666666666 -1.866666666666667 0  0.3999999999999999 -1.866666666666667 0  0.5333333333333332 -1.866666666666667 0  0.6666666666666665 -1.866666666666667 0  0.7999999999999998 -1.866666666666667 0  0.9333333333333331 -1.866666666666667 0  1.066666666666667 -1.866666666666667 0  1.2 -1.866666666666667 0  1.333333333333333 -1.866666666666667 0  1.466666666666667 -1.866666666666667 0  1.6 -1.866666666666667 0  1.733333333333333 -1.866666666666667 0  1.866666666666667 -1.866666666666667 0  2 -1.866666666666667 0  -2 -1.733333333333333 0  -1.866666666666667 -1.733333333333333 0  -1.733333333333333 -1.733333333333333 0  -1.6 -1.733333333333333 0  -1.466666666666667 -1.733333333333333 0  -1.333333333333333 -1.733333333333333 0  -1.2 -1.733333333333333 0  -1.066666666666667 -1.733333333333333 0  -0.9333333333333333 -1.733333333333333 0  -0.8 -1.733333333333333 0  -0.6666666666666667 -1.733333333333333 0  -0.5333333333333334 -1.733333333333333 0  -0.3999999999999999 -1.733333333333333 0  -0.2666666666666666 -1.733333333333333 0  -0.1333333333333333 -1.733333333333333 0  0 -1.733333333333333 0  0.1333333333333333 -1.733333333333333 0  0.2666666666666666 -1.733333333333333 0  0.3999999999999999 -1.733333333333333 0  0.5333333333333332 -1.733333333333333 0  0.6666666666666665 -1.733333333333333 0  0.7999999999999998 -1.733333333333333 0  0.9333333333333331 -1.733333333333333 0  1.066666666666667 -1.733333333333333 0  1.2 -1.733333333333333 0  1.333333333333333 -1.733333333333333 0  1.466666666666667 -1.733333333333333 0  1.6 -1.733333333333333 0  1.733333333333333 -1.733333333333333 0  1.866666666666667 -1.733333333333333 0  2 -1.733333333333333 0  -2 -1.6 0  -1.866666666666667 -1.6 0  -1.733333333333333 -1.6 0  -1.6 -1.6 0  -1.466666666666667 -1.6 0  -1.333333333333333 -1.6 0  -1.2 -1.6 0  -1.066666666666667 -1.6 0  -0.9333333333333333 -1.6 0  -0.8 -1.6 0  -0.6666666666666667 -1.6 0  -0.5333333333333334 -1.6 0  -0.3999999999999999 -1.6 0  -0.2666666666666666 -1.6 0  -0.1333333333333333 -1.6 0  0 -1.6 0  0.1333333333333333 -1.6 0  0.2666666666666666 -1.6 0  0.3999999999999999 -1.6 0  0.5333333333333332 -1.6 0  0.6666666666666665 -1.6 0  0.7999999999999998 -1.6 0  0.9333333333333331 -1.6 0  1.066666666666667 -1.6 0  1.2 -1.6 0  1.333333333333333 -1.6 0  1.466666666666667 -1.6 0  1.6 -1.6 0  1.733333333333333 -1.6 0  1.866666666666667 -1.6 0  2 -1.6 0  -2 -1.466666666666667 0  -1.866666666666667 -1.466666666666667 0  -1.733333333333333 -1.466666666666667 0  -1.6 -1.466666666666667 0  -1.466666666666667 -1.466666666666667 0  -1.333333333333333 -1.466666666666667 0  -1.2 -1.466666666666667 0  -1.066666666666667 -1.466666666666667 0  -0.9333333333333333 -1.466666666666667 0  -0.8 -1.466666666666667 0  -0.6666666666666667 -1.466666666666667 0  -0.5333333333333334 -1.466666666666667 0  -0.3999999999999999 -1.466666666666667 0  -0.2666666666666666 -1.466666666666667 0  -0.1333333333333333 -1.466666666666667 0  0 -1.466666666666667 0  0.1333333333333333 -1.466666666666667 0  0.2666666666666666 -1.466666666666667 0  0.3999999999999999 -1.466666666666667 0  0.5333333333333332 -1.466666666666667 0  0.6666666666666665 -1.466666666666667 0  0.7999999999999998 -1.466666666666667 0  0.9333333333333331 -1.466666666666667 0  1.066666666666667 -1.466666666666667 0  1.2 -1.466666666666667 0  1.333333333333333 -1.466666666666667 0  1.466666666666667 -1.466666666666667 0  1.6 -1.466666666666667 0  1.733333333333333 -1.466666666666667 0  1.866666666666667 -1.466666666666667 0  2 -1.466666666666667 0  -2 -1.333333333333333 0  -1.866666666666667 -1.333333333333333 0  -1.733333333333333 -1.333333333333333 0  -1.6 -1.333333333333333 0  -1.466666666666667 -1.333333333333333 0  -1.333333333333333 -1.333333333333333 0  -1.2 -1.333333333333333 0  -1.066666666666667 -1.333333333333333 0  -0.9333333333333333 -1.333333333333333 0  -0.8 -1.333333333333333 0  -0.6666666666666667 -1.333333333333333 0  -0.5333333333333334 -1.333333333333333 0  -0.3999999999999999 -1.333333333333333 0  -0.2666666666666666 -1.333333333333333 0  -0.1333333333333333 -1.333333333333333 0  0 -1.333333333333333 0  0.1333333333333333 -1.333333333333333 0  0.2666666666666666 -1.333333333333333 0  0.3999999999999999 -1.333333333333333 0  0.5333333333333332 -1.333333333333333 0  0.6666666666666665 -1.333333333333333 0  0.7999999999999998 -1.333333333333333 0  0.9333333333333331 -1.333333333333333 0  1.066666666666667 -1.333333333333333 0  1.2 -1.333333333333333 0  1.333333333333333 -1.333333333333333 0  1.466666666666667 -1.333333333333333 0  1.6 -1.333333333333333 0  1.733333333333333 -1.333333333333333 0  1.866666666666667 -1.333333333333333 0  2 -1.333333333333333 0  -2 -1.2 0  -1.866666666666667 -1.2 0  -1.733333333333333 -1.2 0  -1.6 -1.2 0  -1.466666666666667 -1.2 0  -1.333333333333333 -1.2 0  -1.2 -1.2 0  -1.066666666666667 -1.2 0  -0.9333333333333333 -1.2 0  -0.8 -1.2 0  -0.6666666666666667 -1.2 0  -0.5333333333333334 -1.2 0  -0.3999999999999999 -1.2 0  -0.2666666666666666 -1.2 0  -0.1333333333333333 -1.2 0  0 -1.2 0  0.1333333333333333 -1.2 0  0.2666666666666666 -1.2 0  0.3999999999999999 -1.2 0  0.5333333333333332 -1.2 0  0.6666666666666665 -1.2 0  0.7999999999999998 -1.2 0  0.9333333333333331 -1.2 0  1.066666666666667 -1.2 0  1.2 -1.2 0  1.333333333333333 -1.2 0  1.466666666666667 -1.2 0  1.6 -1.2 0  1.733333333333333 -1.2 0  1.866666666666667 -1.2 0  2 -1.2 0  -2 -1.066666666666667 0  -1.866666666666667 -1.066666666666667 0  -1.733333333333333 -1.066666666666667 0  -1.6 -1.066666666666667 0  -1.466666666666667 -1.066666666666667 0  -1.333333333333333 -1.066666666666667 0  -1.2 -1.066666666666667 0  -1.066666666666667 -1.066666666666667 0  -0.9333333333333333 -1.066666666666667 0  -0.8 -1.066666666666667 0  -0.6666666666666667 -1.066666666666667 0  -0.5333333333333334 -1.066666666666667 0  -0.3999999999999999 -1.066666666666667 0  -0.2666666666666666 -1.066666666666667 0  -0.1333333333333333 -1.066666666666667 0  0 -1.066666666666667 0  0.1333333333333333 -1.066666666666667 0  0.2666666666666666 -1.066666666666667 0  0.3999999999999999 -1.066666666666667 0  0.5333333333333332 -1.066666666666667 0  0.6666666666666665 -1.066666666666667 0  0.7999999999999998 -1.066666666666667 0  0.9333333333333331 -1.066666666666667 0  1.066666666666667 -1.066666666666667 0  1.2 -1.066666666666667 0  1.333333333333333 -1.066666666666667 0  1.466666666666667 -1.066666666666667 0  1.6 -1.066666666666667 0  1.733333333333333 -1.066666666666667 0  1.866666666666667 -1.066666666666667 0  2 -1.066666666666667 0  -2 -0.9333333333333333 0  -1.866666666666667 -0.9333333333333333 0  -1.733333333333333 -0.9333333333333333 0  -1.6 -0.9333333333333333 0  -1.466666666666667 -0.9333333333333333 0  -1.333333333333333 -0.9333333333333333 0  -1.2 -0.9333333333333333 0  -1.066666666666667 -0.9333333333333333 0  -0.9333333333333333 -0.9333333333333333 0  -0.8 -0.9333333333333333 0  -0.6666666666666667 -0.9333333333333333 0  -0.5333333333333334 -0.9333333333333333 0  -0.3999999999999999 -0.9333333333333333 0  -0.2666666666666666 -0.9333333333333333 0  -0.1333333333333333 -0.9333333333333333 0  0 -0.9333333333333333 0  0.1333333333333333 -0.9333333333333333 0  0.2666666666666666 -0.9333333333333333 0  0.3999999999999999 -0.9333333333333333 0  0.5333333333333332 -0.9333333333333333 0  0.6666666666666665 -0.9333333333333333 0  0.7999999999999998 -0.9333333333333333 0  0.9333333333333331 -0.9333333333333333 0  1.066666666666667 -0.9333333333333333 0  1.2 -0.9333333333333333 0  1.333333333333333 -0.9333333333333333 0  1.466666666666667 -0.9333333333333333 0  1.6 -0.9333333333333333 0  1.733333333333333 -0.9333333333333333 0  1.866666666666667 -0.9333333333333333 0  2 -0.9333333333333333 0  -2 -0.8 0  -1.866666666666667 -0.8 0  -1.733333333333333 -0.8 0  -1.6 -0.8 0  -1.466666666666667 -0.8 0  -1.333333333333333 -0.8 0  -1.2 -0.8 0  -1.066666666666667 -0.8 0  -0.9333333333333333 -0.8 0  -0.8 -0.8 0  -0.6666666666666667 -0.8 0  -0.5333333333333334 -0.8 0  -0.3999999999999999 -0.8 0  -0.2666666666666666 -0.8 0  -0.1333333333333333 -0.8 0  0 -0.8 0  0.1333333333333333 -0.8 0  0.2666666666666666 -0.8 0  0.3999999999999999 -0.8 0  0.5333333333333332 -0.8 0  0.6666666666666665 -0.8 0  0.7999999999999998 -0.8 0  0.9333333333333331 -0.8 0  1.066666666666667 -0.8 0  1.2 -0.8 0  1.333333333333333 -0.8 0  1.466666666666667 -0.8 0  1.6 -0.8 0  1.733333333333333 -0.8 0  1.866666666666667 -0.8 0  2 -0.8 0  -2 -0.6666666666666667 0  -1.866666666666667 -0.
[...]
<PointData  Scalars="f_10422"> 
<DataArray  type="Float64"  Name="f_10422"  format="ascii">0.0000000000000000e+00  0.0000000000000000e+00  0.0000000000000000e+00  0.0000000000000000e+00  0.0000000000000000e+00  0.0000000000000000e+00  0.0000000000000000e+00  0.0000000000000000e+00  0.0000000000000000e+00  0.0000000000000000e+00  0.0000000000000000e+00  0.0000000000000000e+00  0.0000000000000000e+00  0.0000000000000000e+00  0.0000000000000000e+00  0.0000000000000000e+00  0.0000000000000000e+00  0.0000000000000000e+00  0.0000000000000000e+00  0.0000000000000000e+00  0.0000000000000000e+00  0.0000000000000000e+00  0.0000000000000000e+00  0.0000000000000000e+00  0.0000000000000000e+00  0.0000000000000000e+00  0.0000000000000000e+00  0.0000000000000000e+00  0.0000000000000000e+00  0.0000000000000000e+00  0.0000000000000000e+00  0.0000000000000000e+00  4.8823011331477905e-22  9.7023039231506030e-22  1.4410769524711553e-21  1.8957818602204031e-21  2.3294590260596104e-21  2.7374177848978345e-21  3.1152307406277995e-21  3.4587899325960404e-21  3.7643558242389157e-21  4.0286005475098766e-21  4.2486457707393174e-21  4.4220951694702663e-21  4.5470613452458571e-21  4.6221870074423666e-21  4.6466602509419617e-21  4.6202238038218109e-21  4.5431781734519903e-21  4.4163786812065888e-21  4.2412264429106935e-21  4.0196534234250530e-21  3.7541017704108910e-21  3.4474977180676430e-21  3.1032204558333554e-21  2.7250665019655654e-21  2.3172103626986537e-21  1.8841627399619328e-21  1.4307286916020856e-21  9.6197124922969648e-22  4.8319547686949565e-22  0.0000000000000000e+00  0.0000000000000000e+00  9.7023039231506030e-22  1.9286242490381552e-21  2.8650373236066170e-21  3.7694369565914327e-21  4.6320638725584609e-21  5.4435708320084440e-21  6.1951428266488076e-21  6.8786037098879841e-21  7.4865116884520343e-21  8.0122445153964863e-21  8.4500744357213801e-21  8.7952325912713976e-21  9.0439624737802414e-21  9.1935620126951865e-21  9.2424139432261962e-21  9.1900041927146004e-21  9.0369281358652800e-21  8.7848846941257617e-21  8.4366583875974046e-21  7.9960895878469731e-21  7.4680333678249637e-21  6.8583075053557231e-21  6.1736303804443206e-21  5.4215497381262103e-21  4.6103636190957853e-21  3.7490352971924397e-21  2.8471050191698751e-21  1.9146030663872808e-21  9.6197124922969667e-22  0.0000000000000000e+00  0.0000000000000000e+00  1.4410769524711557e-21  2.8650373236066182e-21  4.2565785510494435e-21  5.6006806260662821e-21  6.8827855577804501e-21  8.0889732666619804e-21  9.2061265899218013e-21  1.0222083620937004e-20  1.1125776784826630e-20  1.1907358078234670e-20  1.2558309761435638e-20  1.3071539715989610e-20  1.3441460693917280e-20  1.3664052764426822e-20  1.3736908390023265e-20  1.3659259719745444e-20  1.3431987862986674e-20  1.3057614096207988e-20  1.2540273152696298e-20  1.1885668950163703e-20  1.1101013322216502e-20  1.0194948539886620e-20  9.1774546446034641e-21  8.0597428757053585e-21  6.8541367815455792e-21  5.5739429704704411e-21  4.2333138625481769e-21  2.8471050191698762e-21  1.4307286916020864e-21  0.0000000000000000e+00  0.0000000000000000e+00  1.8957818602204031e-21  3.7694369565914327e-21  5.6006806260662813e-21  7.3696545247523493e-21  9.0571443008312864e-21  1.0644796152790490e-20  1.2115324793323796e-20  1.3452708759203147e-20  1.4642370604814647e-20  1.5671340169894650e-20  1.6528399395393135e-20  1.7204207336077444e-20  1.7691404182175056e-20  1.7984693284656606e-20  1.8080900384459560e-20  1.7979009472048688e-20  1.7680174945490171e-20  1.7187709988196953e-20  1.6507051347945582e-20  1.5645700963804519e-20  1.4613145155284935e-20  1.3420752357212895e-20  1.2081650653810762e-20  1.0610586634142059e-20  9.0237673490322221e-21  7.3386873636150838e-21  5.5739429704704426e-21  3.7490352971924427e-21  1.8841627399619339e-21  0.0000000000000000e+00  0.0000000000000000e+00  2.3294590260596100e-21  4.6320638725584617e-21  6.8827855577804501e-21  9.0571443008312834e-21  1.1131473141440221e-20  1.3083177894513508e-20  1.4890987573463344e-20  1.6535190857084179e-20  1.7997855270918520e-20  1.9263026443796018e-20  2.0316905240386234e-20  2.1148000893705636e-20  2.1747258543167439e-20  2.2108159859648703e-20  2.2226795723198381e-20  2.2101910215069245e-20  2.1734915492808982e-20  2.1129877432455039e-20  2.0293472242088476e-20  1.9234914572606770e-20  1.7965857970957716e-20  1.6500268834140296e-20  1.4854275323344669e-20  1.3045992976817444e-20  1.1095328997732321e-20  9.0237673490322266e-21  6.8541367815455837e-21  4.6103636190957891e-21  2.3172103626986549e-21  0.0000000000000000e+00  0.0000000000000000e+00  2.7374177848978326e-21  5.4435708320084387e-21  8.0889732666619728e-21  1.0644796152790479e-20  1.3083177894513499e-20  1.5377527765412240e-20  1.7502817734694910e-20  1.9435858245506093e-20  2.1155554230111154e-20  2.2643138200112535e-20  2.3882377704290845e-20  2.4859754835488348e-20  2.5564615825764578e-20  2.5989289118502899e-20  2.6129170658910460e-20  2.5982775504825848e-20  2.5551755228095509e-20  2.4840880950873201e-20  2.3857992237676501e-20  2.2613912438787413e-20  2.1122331448796390e-20  1.9399657199874384e-20  1.7464837544803786e-20  1.5339154488162418e-20  1.3045992976817438e-20  1.0610586634142056e-20  8.0597428757053540e-21  5.4215497381262110e-21  2.7250665019655661e-21  0.0000000000000000e+00  0.0000000000000000e+00  3.1152307406277968e-21  6.1951428266488001e-21  9.2061265899217953e-21  1.2115324793323783e-20  1.4890987573463329e-20  1.7502817734694904e-20  1.9922301936578440e-20  2.2123023464515957e-20  2.4080952640629157e-20  2.5774711359085265e-20  2.7185808655084303e-20  2.8298844628019111e-20  2.9101680442767332e-20  2.9585572536755167e-20  2.9745269569694985e-20  2.9579071069728679e-20  2.9088847153413893e-20  2.8280019125038506e-20  2.7161501189371121e-20  2.5745603936468250e-20  2.4047900672036500e-20  2.2087058065486887e-20  1.9884632962061107e-20  1.7464837544803777e-20  1.4854275323344663e-20  1.2081650653810753e-20  9.1774546446034536e-21  6.1736303804443146e-21  3.1032204558333539e-21  0.0000000000000000e+00  0.0000000000000000e+00  3.4587899325960366e-21  6.8786037098879781e-21  1.0222083620937001e-20  1.3452708759203138e-20  1.6535190857084170e-20  1.9435858245506084e-20  2.2123023464515957e-20  2.4567330124610152e-20  2.6742074875397256e-20  2.8623500691309843e-20  3.0191058081672533e-20  3.1427631251202693e-20  3.2319726669116292e-20  3.2857621948702845e-20  3.3035473394034561e-20  3.2851381035216434e-20  3.2307410445900216e-20  3.1409571113183653e-20  3.0167751606073085e-20  2.8595612259199998e-20  2.6710436547538708e-20  2.4532942768802326e-20  2.2087058065486893e-20  1.9399657199874375e-20  1.6500268834140284e-20  1.3420752357212885e-20  1.0194948539886609e-20  6.8583075053557156e-21  3.4474977180676392e-21  0.0000000000000000e+00  0.0000000000000000e+00  3.7643558242389127e-21  7.4865116884520267e-21  1.1125776784826616e-20  1.4642370604814632e-20  1.7997855270918508e-20  2.1155554230111127e-20  2.4080952640629157e-20  2.6742074875397253e-20  2.9109834793018530e-20  3.1158354750284754e-20  3.2865249714815445e-20  3.4211873261251051e-20  3.5183522687382159e-20  3.5769600961025820e-20  3.5963733699990999e-20  3.5763839892301488e-20  3.5172155577912438e-20  3.4195210231892780e-20  3.2843756107307907e-20  3.1132651308156711e-20  2.9080697862568628e-20  2.6710436547538756e-20  2.4047900672036533e-20  2.1122331448796414e-20  1.7965857970957737e-20  1.4613145155284951e-20  1.1101013322216511e-20  7.4680333678249683e-21  3.7541017704108940e-21  0.0000000000000000e+00  0.0000000000000000e+00  4.0286005475098698e-21  8.0122445153964773e-21  1.1907358078234654e-20  1.5671340169894625e-20  1.9263026443795994e-20  2.2643138200112520e-20  2.5774711359085256e-20  2.8623500691309837e-20  3.1158354750284754e-20  3.3351557272053273e-20  3.5179131191486082e-20  3.6621101858278719e-20  3.7661716506256503e-20  3.8289617528693912e-20  3.8497967633636514e-20  3.8284525491103943e-20  3.7651671033178182e-20  3.6606380122829025e-20  3.5160148862105301e-20  3.3328868358956916e-20  3.1132651308156753e-20  2.8595612259200089e-20  2.5745603936468340e-20  2.2613912438787470e-20  1.9234914572606806e-20  1.5645700963804550e-20  1.1885668950163729e-20  7.9960895878469926e-21  4.0196534234250628e-21  0.0000000000000000e+00  0.0000000000000000e+00  4.2486457707393098e-21  8.4500744357213635e-21  1.2558309761435617e-20  1.6528399395393108e-20  2.0316905240386207e-20  2.3882377704290830e-20  2.7185808655084297e-20  3.0191058081672527e-20  3.2865249714815439e-20  3.5179131191486076e-20  3.7107394738690066e-20  3.8628954797302812e-20  3.9727179492628211e-20  4.0390073377649382e-20  4.0610409420099453e-20  4.0385808769007711e-20  3.9718767414039616e-20  3.8616629435535759e-20  3.7091507128362778e-20  3.5160148862105379e-20  3.2843756107307998e-20  3.0167751606073212e-20  2.7161501189371253e-20  2.3857992237676592e-20  2.0293472242088530e-20  1.6507051347945633e-20  1.2540273152696332e-20  8.4366583875974331e-21  4.2412264429107078e-21  0.0000000000000000e+00  0.0000000000000000e+00  4.4220951694702550e-21  8.7952325912713705e-21  1.3071539715989573e-20  1.7204207336077396e-20  2.1148000893705579e-20  2.4859754835488309e-20  2.8298844628019081e-20  3.1427631251202675e-20  3.4211873261251027e-20  3.6621101858278689e-20  3.8628954797302800e-20  4.0213465437462614e-20  4.1357303723875557e-20  4.2047966431806940e-20  4.2277914566425744e-20  4.2044656396442997e-20  4.1350775199675321e-20  4.0203901406392988e-20  3.8616629435535759e-20  3.6606380122829074e-20  3.4195210231892870e-20  3.1409571113183791e-20  2.8280019125038669e-20  2.4840880950873291e-20  2.1129877432455084e-20  1.7187709988196998e-20  1.3057614096208021e-20  8.7848846941257903e-21  4.4163786812066046e-21  0.0000000000000000e+00  0.0000000000000000e+00  4.5470613452458458e-21  9.0439624737802083e-21  1.3441460693917228e-20  1.7691404182174993e-20  2.1747258543167358e-20  2.5564615825764494e-20  2.9101680442767302e-20  3.2319726669116274e-20  3.5183522687382147e-20  3.7661716506256461e-20  3.9727179492628187e-20  4.1357303723875569e-20  4.2534249877042092e-20  4.3245142918403334e-20  4.3482213433518364e-20  4.3242883037258491e-20  4.2529792918639324e-20  4.1350775199675279e-20  3.9718767414039567e-20  3.7651671033178218e-20  3.5172155577912517e-20  3.2307410445900361e-20  2.9088847153414025e-20  2.5551755228095597e-20  2.1734915492809045e-20  1.7680174945490219e-20  1.3431987862986707e-20  9.0369281358653070e-21  4.5431781734520061e-21  0.0000000000000000e+00  0.0000000000000000e+00  4.6221870074423493e-21  9.1935620126951488e-21  1.3664052764426756e-20  1.7984693284656531e-20  2.2108159859648621e-20  2.5989289118502833e-20  2.9585572536755113e-20  3.2857621948702796e-20  3.5769600961025778e-20  3.8289617528693870e-20  4.0390073377649340e-20  4.2047966431806947e-20  4.3245142918403328e-20  4.3968496379215520e-20  4.4210111399039770e-20  4.3967350470336744e-20  4.3242883037258455e-20  4.2044656396442937e-20  4.0385808769007663e-20  3.8284525491103961e-20  3.5763839892301566e-20  3.2851381035216573e-20  2.9579071069728800e-20  2.5982775504825926e-20  2.2101910215069306e-20  1.7979009472048730e-20  1.3659259719745477e-20  9.1900041927146259e-21  4.6202238038218259e-21  0.0000000000000000e+00  0.0000000000000000e+00  4.6466602509419414e-21  9.2424139432261556e-21  1.3736908390023202e-20  1.8080900384459476e-20  2.2226795723198297e-20  2.6129170658910390e-20  2.9745269569694907e-20  3.3035473394034483e-20  3.5963733699990908e-20  3.8497967633636424e-20  4.0610409420099363e-20  4.2277914566425678e-20  4.3482213433518280e-20  4.4210111399039715e-20  4.4453633418265529e-20  4.4210111399039733e-20  4.3482213433518328e-20  4.2277914566425690e-20  4.0610409420099423e-20  3.8497967633636538e-20  3.5963733699991059e-20  3.3035473394034669e-20  2.9745269569695087e-20  2.6129170658910541e-20  2.2226795723198435e-20  1.8080900384459605e-20  1.3736908390023295e-20  9.2424139432262203e-21  4.6466602509419752e-21  0.0000000000000000e+00  0.0000000000000000e+00  4.6202238038217906e-21  9.1900041927145612e-21  1.3659259719745387e-20  1.7979009472048610e-20  2.2101910215069164e-20  2.5982775504825770e-20  2.9579071069728619e-20  3.2851381035216350e-20  3.5763839892301379e-20  3.8284525491103816e-20  4.0385808769007572e-20  4.2044656396442864e-20  4.3242883037258341e-20  4.3967350470336641e-20  4.4210111399039697e-20  4.3968496379215496e-20  4.3245142918403298e-20  4.2047966431806910e-20  4.0390073377649364e-20  3.8289617528693936e-20  3.5769600961025881e-20  3.2857621948702965e-20  2.9585572536755287e-20  2.5989289118502984e-20  2.2108159859648766e-20  1.7984693284656657e-20  1.3664052764426855e-20  9.1935620126952151e-21  4.6221870074423817e-21  0.0000000000000000e+00  0.0000000000000000e+00  4.5431781734519685e-21  9.0369281358652393e-21  1.3431987862986617e-20  1.7680174945490093e-20  2.1734915492808889e-20  2.5551755228095422e-20  2.9088847153413821e-20  3.2307410445900114e-20  3.5172155577912318e-20  3.7651671033178044e-20  3.9718767414039447e-20  4.1350775199675177e-20  4.2529792918639167e-20  4.3242883037258317e-20  4.3482213433518280e-20  4.3245142918403292e-20  4.2534249877042050e-20  4.1357303723875515e-20  3.9727179492628175e-20  3.7661716506256527e-20  3.5183522687382237e-20  3.2319726669116413e-20  2.9101680442767452e-20  2.5564615825764665e-20  2.1747258543167517e-20  1.7691404182175116e-20  1.3441460693917320e-20  9.0439624737802654e-21  4.5470613452458714e-21  0.0000000000000000e+00  0.0000000000000000e+00  4.4163786812065678e-21  8.7848846941257211e-21  1.3057614096207927e-20  1.7187709988196878e-20  2.1129877432454949e-20  2.4840880950873126e-20  2.8280019125038434e-20  3.1409571113183551e-20  3.4195210231892659e-20  3.6606380122828887e-20  3.8616629435535608e-20  4.0203901406392838e-20  4.1350775199675123e-20  4.2044656396442816e-20  4.2277914566425605e-20  4.2047966431806862e-20  4.1357303723875484e-20  4.0213465437462530e-20  3.8628954797302776e-20  3.6621101858278737e-20  3.4211873261251111e-20  3.1427631251202826e-20  2.8298844628019237e-20  2.4859754835488447e-20  2.1148000893705708e-20  1.7204207336077502e-20  1.3071539715989651e-20  8.7952325912714217e-21  4.4220951694702806e-21  0.0000000000000000e+00  0.0000000000000000e+00  4.2412264429106754e-21  8.4366583875973669e-21  1.2540273152696242e-20  1.6507051347945519e-20  2.0293472242088407e-20  2.3857992237676429e-20  2.7161501189371049e-20  3.0167751606072983e-20  3.2843756107307793e-20  3.5160148862105193e-20  3.7091507128362604e-20  3.8616629435535602e-20  3.9718767414039393e-20  4.0385808769007524e-20  4.0610409420099315e-20  4.0390073377649268e-20  3.9727179492628109e-20  3.8628954797302740e-20  3.7107394738690030e-20  3.5179131191486100e-20  3.2865249714815523e-20  3.0191058081672683e-20  2.7185808655084454e-20  2.3882377704290968e-20  2.0316905240386321e-20  1.6528399395393195e-20  1.2558309761435683e-20  8.4500744357214072e-21  4.2486457707393339e-21  0.0000000000000000e+00  0.0000000000000000e+00  4.0196534234250349e-21  7.9960895878469384e-21  1.1885668950163653e-20  1.5645700963804450e-20  1.9234914572606688e-20  2.2613912438787332e-20  2.5745603936468168e-20  2.8595612259199890e-20  3.1132651308156578e-20  3.3328868358956772e-20  3.5160148862105217e-20  3.6606380122828911e-20  3.7651671033178026e-20  3.8284525491103798e-20  3.8497967633636406e-20  3.8289617528693822e-20  3.7661716506256413e-20  3.6621101858278653e-20  3.5179131191486064e-20  3.3351557272053333e-20  3.1158354750284862e-20  2.8623500691310005e-20  2.5774711359085425e-20  2.2643138200112643e-20  1.9263026443796102e-20  1.5671340169894719e-20  1.1907358078234723e-20  8.0122445153965224e-21  4.0286005475098946e-21  0.0000000000000000e+00  0.0000000000000000e+00  3.7541017704108729e-21  7.4680333678249291e-21  1.1101013322216456e-20  1.4613145155284869e-20  1.7965857970957632e-20  2.1122331448796306e-20  2.4047900672036409e-20  2.6710436547538596e-20  2.9080697862568477e-20  3.1132651308156584e-20  3.2843756107307835e-20  3.4195210231892696e-20  3.5172155577912330e-20  3.5763839892301409e-20  3.5963733699990914e-20  3.5769600961025742e-20  3.5183522687382098e-20  3.4211873261250997e-20  3.2865249714815457e-20  3.1158354750284838e-20  2.9109834793018650e-20  2.6742074875397418e-20  2.4080952640629293e-20  2.1155554230111247e-20  1.7997855270918610e-20  1.4642370604814719e-20  1.1125776784826678e-20  7.4865116884520704e-21  3.7643558242389338e-21  0.0000000000000000e+00  0.0000000000000000e+00  3.4474977180676226e-21  6.8583075053556825e-21  1.0194948539886563e-20  1.3420752357212823e-20  1.6500268834140215e-20  1.9399657199874287e-20  2.2087058065486767e-20  2.4532942768802187e-20  2.6710436547538593e-20  2.8595612259199914e-20  3.0167751606073037e-20  3.1409571113183611e-20  3.2307410445900162e-20  3.2851381035216392e-20  3.3035473394034507e-20  3.2857621948702802e-20  3.2319726669116268e-20  3.1427631251202675e-20  3.0191058081672563e-20  2.8623500691309921e-20  2.6742074875397376e-20  2.4567330124610288e-20  2.2123023464516087e-20  1.9435858245506187e-20  1.6535190857084263e-20  1.3452708759203215e-20  1.0222083620937057e-20  6.8786037098880187e-21  3.4587899325960577e-21  0.0000000000000000e+00  0.0000000000000000e+00  3.1032204558333358e-21  6.1736303804442815e-21  9.1774546446034039e-21  1.2081650653810689e-20  1.4854275323344591e-20  1.7464837544803696e-20  1.9884632962060992e-20  2.2087058065486752e-20  2.4047900672036391e-20  2.5745603936468177e-20  2.7161501189371091e-20  2.8280019125038488e-20  2.9088847153413851e-20  2.9579071069728649e-20  2.9745269569694943e-20  2.9585572536755125e-20  2.9101680442767308e-20  2.8298844628019087e-20  2.7185808655084316e-20  2.5774711359085319e-20  2.4080952640629235e-20  2.2123023464516066e-20  1.9922301936578539e-20  1.7502817734694985e-20  1.4890987573463404e-20  1.2115324793323843e-20  9.2061265899218389e-21  6.1951428266488301e-21  3.1152307406278123e-21  0.0000000000000000e+00  0.0000000000000000e+00  2.7250665019655488e-21  5.4215497381261772e-21  8.0597428757053058e-21  1.0610586634141998e-20  1.3045992976817366e-20  1.5339154488162334e-20  1.7464837544803678e-20  1.9399657199874260e-20  2.1122331448796276e-20  2.2613912438787332e-20  2.3857992237676450e-20  2.4840880950873153e-20  2.5551755228095458e-20  2.5982775504825797e-20  2.6129170658910412e-20  2.5989289118502854e-20  2.5564615825764548e-20  2.4859754835488327e-20  2.3882377704290848e-20  2.2643138200112565e-20  2.1155554230111202e-20  1.9435858245506178e-20  1.7502817734694988e-20  1.5377527765412315e-20  1.3083177894513561e-20  1.0644796152790524e-20  8.0889732666620059e-21  5.4435708320084621e-21  2.7374177848978431e-21  0.0000000000000000e+00  0.0000000000000000e+00  2.3172103626986395e-21  4.6103636190957582e-21  6.8541367815455401e-21  9.0237673490321740e-21  1.1095328997732267e-20  1.3045992976817371e-20  1.4854275323344585e-20  1.6500268834140197e-20  1.7965857970957629e-20  1.9234914572606703e-20  2.0293472242088425e-20  2.1129877432454976e-20  2.1734915492808952e-20  2.2101910215069200e-20  2.2226795723198339e-20  2.2108159859648645e-20  2.1747258543167400e-20  2.1148000893705612e-20  2.0316905240386231e-20  1.9263026443796039e-20  1.7997855270918580e-20  1.6535190857084254e-20  1.4890987573463407e-20  1.3083177894513561e-20  1.1131473141440269e-20  9.0571443008313210e-21  6.8827855577804757e-21  4.6320638725584797e-21  2.3294590260596198e-21  0.0000000000000000e+00  0.0000000000000000e+00  1.8841627399619219e-21  3.7490352971924193e-21  5.5739429704704118e-21  7.3386873636150462e-21  9.0237673490321785e-21  1.0610586634142002e-20  1.2081650653810690e-20  1.3420752357212814e-20  1.4613145155284872e-20  1.5645700963804465e-20  1.6507051347945543e-20  1.7187709988196914e-20  1.7680174945490135e-20  1.7979009472048646e-20  1.8080900384459521e-20  1.7984693284656564e-20  1.7691404182175026e-20  1.7204207336077423e-20  1.6528399395393129e-20  1.5671340169894668e-20  1.4642370604814692e-20  1.3452708759203208e-20  1.21153247933