<?xml version="1.0"?>
<VTKFile type="UnstructuredGrid"  version="0.1"  >
<UnstructuredGrid>
<Piece  NumberOfPoints="961" NumberOfCells="1800">
<Points>
<DataArray  type="Float64"  NumberOfComponents="3"  format="ascii">-2 -2 0  -1.866666666666667 -2 0  -1.733333333333333 -2 0  -1.6 -2 0  -1.466666666666667 -2 0  -1.333333333333333 -2 0  -1.2 -2 0  -1.066666666666667 -2 0  -0.9333333333333333 -2 0  -0.8 -2 0  -0.6666666666666667 -2 0  -0.5333333333333334 -2 0  -0.3999999999999999 -2 0  -0.2666666666666666 -2 0  -0.1333333333333333 -2 0  0 -2 0  0.1333333333333333 -2 0  0.2666666666666666 -2 0  0.3999999999999999 -2 0  0.5333333333333332 -2 0  0.6666666666666665 -2 0  0.7999999999999998 -2 0  0.9333333333333331 -2 0  1.066666666666667 -2 0  1.2 -2 0  1.333333333333333 -2 0  1.466666666666667 -2 0  1.6 -2 0  1.733333333333333 -2 0  1.866666666666667 -2 0  2 -2 0  -2 -1.866666666666667 0  -1.866666666666667 -1.866666666666667 0  -1.733333333333333 -1.866666666666667 0  -1.6 -1.866666666666667 0  -1.466666666666667 -1.866666666666667 0  -1.333333333333333 -1.866666666666667 0  -1.2 -1.866666666666667 0  -1.066666666666667 -1.866666666666667 0  -0.9333333333333333 -1.866666666666667 0  -0.8 -1.866666666666667 0  -0.6666666666666667 -1.866666666666667 0  -0.5333333333333334 -1.866666666666667 0  -0.3999999999999999 -1.866666666666667 0  -0.2666666666666666 -1.866666666666667 0  -0.1333333333333333 -1.866666666666667 0  0 -1.866666666666667 0  0.1333333333333333 -1.866666666666667 0  0.2666666666666666 -1.866666666666667 0  0.3999999999999999 -1.866666666666667 0  0.5333333333333332 -1.866666666666667 0  0.6666666666666665 -1.866666666666667 0  0.7999999999999998 -1.866666666666667 0  0.9333333333333331 -1.866666666666667 0  1.066666666666667 -1.866666666666667 0  1.2 -1.866666666666667 0  1.333333333333333 -1.866666666666667 0  1.466666666666667 -1.866666666666667 0  1.6 -1.866666666666667 0  1.733333333333333 -1.866666666666667 0  1.866666666666667 -1.866666666666667 0  2 -1.866666666666667 0  -2 -1.733333333333333 0  -1.866666666666667 -1.733333333333333 0  -1.733333333333333 -1.733333333333333 0  -1.6 -1.733333333333333 0  -1.466666666666667 -1.733333333333333 0  -1.333333333333333 -1.733333333333333 0  -1.2 -1.733333333333333 0  -1.066666666666667 -1.733333333333333 0  -0.9333333333333333 -1.733333333333333 0  -0.8 -1.733333333333333 0  -0.6666666666666667 -1.733333333333333 0  -0.5333333333333334 -1.733333333333333 0  -0.3999999999999999 -1.733333333333333 0  -0.2666666666666666 -1.733333333333333 0  -0.1333333333333333 -1.733333333333333 0  0 -1.733333333333333 0  0.1333333333333333 -1.733333333333333 0  0.2666666666666666 -1.733333333333333 0  0.3999999999999999 -1.733333333333333 0  0.5333333333333332 -1.733333333333333 0  0.6666666666666665 -1.733333333333333 0  0.7999999999999998 -1.733333333333333 0  0.9333333333333331 -1.733333333333333 0  1.066666666666667 -1.733333333333333 0  1.2 -1.733333333333333 0  1.333333333333333 -1.733333333333333 0  1.466666666666667 -1.733333333333333 0  1.6 -1.733333333333333 0  1.733333333333333 -1.733333333333333 0  1.866666666666667 -1.733333333333333 0  2 -1.733333333333333 0  -2 -1.6 0  -1.866666666666667 -1.6 0  -1.733333333333333 -1.6 0  -1.6 -1.6 0  -1.466666666666667 -1.6 0  -1.333333333333333 -1.6 0  -1.2 -1.6 0  -1.066666666666667 -1.6 0  -0.9333333333333333 -1.6 0  -0.8 -1.6 0  -0.6666666666666667 -1.6 0  -0.5333333333333334 -1.6 0  -0.3999999999999999 -1.6 0  -0.2666666666666666 -1.6 0  -0.1333333333333333 -1.6 0  0 -1.6 0  0.1333333333333333 -1.6 0  0.2666666666666666 -1.6 0  0.3999999999999999 -1.6 0  0.5333333333333332 -1.6 0  0.6666666666666665 -1.6 0  0.7999999999999998 -1.6 0  0.9333333333333331 -1.6 0  1.066666666666667 -1.6 0  1.2 -1.6 0  1.333333333333333 -1.6 0  1.466666666666667 -1.6 0  1.6 -1.6 0  1.733333333333333 -1.6 0  1.866666666666667 -1.6 0  2 -1.6 0  -2 -1.466666666666667 0  -1.866666666666667 -1.466666666666667 0  -1.733333333333333 -1.466666666666667 0  -1.6 -1.466666666666667 0  -1.466666666666667 -1.466666666666667 0  -1.333333333333333 -1.466666666666667 0  -1.2 -1.466666666666667 0  -1.066666666666667 -1.466666666666667 0  -0.9333333333333333 -1.466666666666667 0  -0.8 -1.466666666666667 0  -0.6666666666666667 -1.466666666666667 0  -0.5333333333333334 -1.466666666666667 0  -0.3999999999999999 -1.466666666666667 0  -0.2666666666666666 -1.466666666666667 0  -0.1333333333333333 -1.466666666666667 0  0 -1.466666666666667 0  0.1333333333333333 -1.466666666666667 0  0.2666666666666666 -1.466666666666667 0  0.3999999999999999 -1.466666666666667 0  0.5333333333333332 -1.466666666666667 0  0.6666666666666665 -1.466666666666667 0  0.7999999999999998 -1.466666666666667 0  0.9333333333333331 -1.466666666666667 0  1.066666666666667 -1.466666666666667 0  1.2 -1.466666666666667 0  1.333333333333333 -1.466666666666667 0  1.466666666666667 -1.466666666666667 0  1.6 -1.466666666666667 0  1.733333333333333 -1.466666666666667 0  1.866666666666667 -1.466666666666667 0  2 -1.466666666666667 0  -2 -1.333333333333333 0  -1.866666666666667 -1.333333333333333 0  -1.733333333333333 -1.333333333333333 0  -1.6 -1.333333333333333 0  -1.466666666666667 -1.333333333333333 0  -1.333333333333333 -1.333333333333333 0  -1.2 -1.333333333333333 0  -1.066666666666667 -1.333333333333333 0  -0.9333333333333333 -1.333333333333333 0  -0.8 -1.333333333333333 0  -0.6666666666666667 -1.333333333333333 0  -0.5333333333333334 -1.333333333333333 0  -0.3999999999999999 -1.333333333333333 0  -0.2666666666666666 -1.333333333333333 0  -0.1333333333333333 -1.333333333333333 0  0 -1.333333333333333 0  0.1333333333333333 -1.333333333333333 0  0.2666666666666666 -1.333333333333333 0  0.3999999999999999 -1.333333333333333 0  0.5333333333333332 -1.333333333333333 0  0.6666666666666665 -1.333333333333333 0  0.7999999999999998 -1.333333333333333 0  0.9333333333333331 -1.333333333333333 0  1.066666666666667 -1.333333333333333 0  1.2 -1.333333333333333 0  1.333333333333333 -1.333333333333333 0  1.466666666666667 -1.333333333333333 0  1.6 -1.333333333333333 0  1.733333333333333 -1.333333333333333 0  1.866666666666667 -1.333333333333333 0  2 -1.333333333333333 0  -2 -1.2 0  -1.866666666666667 -1.2 0  -1.733333333333333 -1.2 0  -1.6 -1.2 0  -1.466666666666667 -1.2 0  -1.333333333333333 -1.2 0  -1.2 -1.2 0  -1.066666666666667 -1.2 0  -0.9333333333333333 -1.2 0  -0.8 -1.2 0  -0.6666666666666667 -1.2 0  -0.5333333333333334 -1.2 0  -0.3999999999999999 -1.2 0  -0.2666666666666666 -1.2 0  -0.1333333333333333 -1.2 0  0 -1.2 0  0.1333333333333333 -1.2 0  0.2666666666666666 -1.2 0  0.3999999999999999 -1.2 0  0.5333333333333332 -1.2 0  0.6666666666666665 -1.2 0  0.7999999999999998 -1.2 0  0.9333333333333331 -1.2 0  1.066666666666667 -1.2 0  1.2 -1.2 0  1.333333333333333 -1.2 0  1.466666666666667 -1.2 0  1.6 -1.2 0  1.733333333333333 -1.2 0  1.866666666666667 -1.2 0  2 -1.2 0  -2 -1.066666666666667 0  -1.866666666666667 -1.066666666666667 0  -1.733333333333333 -1.066666666666667 0  -1.6 -1.066666666666667 0  -1.466666666666667 -1.066666666666667 0  -1.333333333333333 -1.066666666666667 0  -1.2 -1.066666666666667 0  -1.066666666666667 -1.066666666666667 0  -0.9333333333333333 -1.066666666666667 0  -0.8 -1.066666666666667 0  -0.6666666666666667 -1.066666666666667 0  -0.5333333333333334 -1.066666666666667 0  -0.3999999999999999 -1.066666666666667 0  -0.2666666666666666 -1.066666666666667 0  -0.1333333333333333 -1.066666666666667 0  0 -1.066666666666667 0  0.1333333333333333 -1.066666666666667 0  0.2666666666666666 -1.066666666666667 0  0.3999999999999999 -1.066666666666667 0  0.5333333333333332 -1.066666666666667 0  0.6666666666666665 -1.066666666666667 0  0.7999999999999998 -1.066666666666667 0  0.9333333333333331 -1.066666666666667 0  1.066666666666667 -1.066666666666667 0  1.2 -1.066666666666667 0  1.333333333333333 -1.066666666666667 0  1.466666666666667 -1.066666666666667 0  1.6 -1.066666666666667 0  1.733333333333333 -1.066666666666667 0  1.866666666666667 -1.066666666666667 0  2 -1.066666666666667 0  -2 -0.9333333333333333 0  -1.866666666666667 -0.9333333333333333 0  -1.733333333333333 -0.9333333333333333 0  -1.6 -0.9333333333333333 0  -1.466666666666667 -0.9333333333333333 0  -1.333333333333333 -0.9333333333333333 0  -1.2 -0.9333333333333333 0  -1.066666666666667 -0.9333333333333333 0  -0.9333333333333333 -0.9333333333333333 0  -0.8 -0.9333333333333333 0  -0.6666666666666667 -0.9333333333333333 0  -0.5333333333333334 -0.9333333333333333 0  -0.3999999999999999 -0.9333333333333333 0  -0.2666666666666666 -0.9333333333333333 0  -0.1333333333333333 -0.9333333333333333 0  0 -0.9333333333333333 0  0.1333333333333333 -0.9333333333333333 0  0.2666666666666666 -0.9333333333333333 0  0.3999999999999999 -0.9333333333333333 0  0.5333333333333332 -0.9333333333333333 0  0.6666666666666665 -0.9333333333333333 0  0.7999999999999998 -0.9333333333333333 0  0.9333333333333331 -0.9333333333333333 0  1.066666666666667 -0.9333333333333333 0  1.2 -0.9333333333333333 0  1.333333333333333 -0.9333333333333333 0  1.466666666666667 -0.9333333333333333 0  1.6 -0.9333333333333333 0  1.733333333333333 -0.9333333333333333 0  1.866666666666667 -0.9333333333333333 0  2 -0.9333333333333333 0  -2 -0.8 0  -1.866666666666667 -0.8 0  -1.733333333333333 -0.8 0  -1.6 -0.8 0  -1.466666666666667 -0.8 0  -1.333333333333333 -0.8 0  -1.2 -0.8 0  -1.066666666666667 -0.8 0  -0.9333333333333333 -0.8 0  -0.8 -0.8 0  -0.6666666666666667 -0.8 0  -0.5333333333333334 -0.8 0  -0.3999999999999999 -0.8 0  -0.2666666666666666 -0.8 0  -0.1333333333333333 -0.8 0  0 -0.8 0  0.1333333333333333 -0.8 0  0.2666666666666666 -0.8 0  0.3999999999999999 -0.8 0  0.5333333333333332 -0.8 0  0.6666666666666665 -0.8 0  0.7999999999999998 -0.8 0  0.9333333333333331 -0.8 0  1.066666666666667 -0.8 0  1.2 -0.8 0  1.333333333333333 -0.8 0  1.466666666666667 -0.8 0  1.6 -0.8 0  1.733333333333333 -0.8 0  1.866666666666667 -0.8 0  2 -0.8 0  -2 -0.6666666666666667 0  -1.866666666666667 -0.
[...]
<PointData  Scalars="f_10422"> 
<DataArray  type="Float64"  Name="f_10422"  format="ascii">0.0000000000000000e+00  0.0000000000000000e+00  0.0000000000000000e+00  0.0000000000000000e+00  0.0000000000000000e+00  0.0000000000000000e+00  0.0000000000000000e+00  0.0000000000000000e+00  0.0000000000000000e+00  0.0000000000000000e+00  0.0000000000000000e+00  0.0000000000000000e+00  0.0000000000000000e+00  0.0000000000000000e+00  0.0000000000000000e+00  0.0000000000000000e+00  0.0000000000000000e+00  0.0000000000000000e+00  0.0000000000000000e+00  0.0000000000000000e+00  0.0000000000000000e+00  0.0000000000000000e+00  0.0000000000000000e+00  0.0000000000000000e+00  0.0000000000000000e+00  0.0000000000000000e+00  0.0000000000000000e+00  0.0000000000000000e+00  0.0000000000000000e+00  0.0000000000000000e+00  0.0000000000000000e+00  0.0000000000000000e+00  7.9137114351579503e-22  1.5726443619529720e-21  2.3358385414381080e-21  3.0728687511576075e-21  3.7758151391154298e-21  4.4370746163262087e-21  5.0494708259355410e-21  5.6063451833309783e-21  6.1016362817170766e-21  6.5299499869147961e-21  6.8866208172943198e-21  7.1677645756829789e-21  7.3703219819701309e-21  7.4920930066949043e-21  7.5317616345931796e-21  7.4889108541570274e-21  7.3640277571380790e-21  7.1584987321171059e-21  6.8745948447298760e-21  6.5154476126754972e-21  6.0850155078601258e-21  5.5880416570214423e-21  5.0300033810718879e-21  4.4170544483123280e-21  3.7559613069445918e-21  3.0540353440513444e-21  2.3190650675903862e-21  1.5592571346401184e-21  7.8321051209992516e-22  0.0000000000000000e+00  0.0000000000000000e+00  1.5726443619529710e-21  3.1261029087519321e-21  4.6439328529008384e-21  6.1098722782492565e-21  7.5081023961776815e-21  8.8234722862297258e-21  1.0041693720370395e-20  1.1149514000125618e-20  1.2134870738738827e-20  1.2987029950341132e-20  1.3696707529137974e-20  1.4256173643173655e-20  1.4659339376256288e-20  1.4901824948022378e-20  1.4981008937442459e-20  1.4896058085246656e-20  1.4647937433017177e-20  1.4239400758884456e-20  1.3674961485508552e-20  1.2960844462925211e-20  1.2104919268466712e-20  1.1116615925730581e-20  1.0006824242457443e-20  8.7877783423868629e-21  7.4729285018827382e-21  6.0768032722869139e-21  4.6148664191005367e-21  3.1033760038657675e-21  1.5592571346401189e-21  0.0000000000000000e+00  0.0000000000000000e+00  2.3358385414381073e-21  4.6439328529008369e-21  6.8994790438847697e-21  9.0781312144489319e-21  1.1156292348405291e-20  1.3111399418699511e-20  1.4922190844300495e-20  1.6568953416848014e-20  1.8033747727955264e-20  1.9300611170104518e-20  2.0355737357243550e-20  2.1187630689804282e-20  2.1787234809520582e-20  2.2148033819193933e-20  2.2266125346462452e-20  2.2140264783350019e-20  2.1771880318182484e-20  2.1165058682567902e-20  2.0326501856822856e-20  1.9265455308933121e-20  1.7993608684523190e-20  1.6524970222172765e-20  1.4875716549629587e-20  1.3064019940691273e-20  1.1109855608452090e-20  9.0347922058405640e-21  6.8617693601911795e-21  4.6148664191005382e-21  2.3190650675903873e-21  0.0000000000000000e+00  0.0000000000000000e+00  3.0728687511576060e-21  6.1098722782492534e-21  9.0781312144489273e-21  1.1945457212733300e-20  1.4680705771450943e-20  1.7254127253095326e-20  1.9637703972545383e-20  2.1805466774417596e-20  2.3733787108382087e-20  2.5401641669485967e-20  2.6790847129875518e-20  2.7886262771457592e-20  2.8675959094357221e-20  2.9151350771522986e-20  2.9307292653248580e-20  2.9142137891857453e-20  2.8657757648699157e-20  2.7859522255661601e-20  2.6756244125555068e-20  2.5360083135325440e-20  2.3686415639922137e-20  2.1753668710971692e-20  1.9583121632033009e-20  1.7198677117690677e-20  1.4626605141866740e-20  1.1895262607664284e-20  9.0347922058405670e-21  6.0768032722869162e-21  3.0540353440513470e-21  0.0000000000000000e+00  0.0000000000000000e+00  3.7758151391154290e-21  7.5081023961776785e-21  1.1156292348405284e-20  1.4680705771450943e-20  1.8042980940172692e-20  2.1206494988412101e-20  2.4136769819631009e-20  2.6801855395564204e-20  2.9172685006825106e-20  3.1223398247402632e-20  3.2931628128436078e-20  3.4278749290367230e-20  3.5250084729091828e-20  3.5835068898915026e-20  3.6027365515692453e-20  3.5824938863420430e-20  3.5230077905239172e-20  3.4249373010897318e-20  3.2893645631754314e-20  3.1177831775686314e-20  2.9120820651946439e-20  2.6745250363475214e-20  2.4077263012154096e-20  2.1146222035072768e-20  1.7984394975158532e-20  1.4626605141866743e-20  1.1109855608452094e-20  7.4729285018827442e-21  3.7559613069445956e-21  0.0000000000000000e+00  0.0000000000000000e+00  4.4370746163262050e-21  8.8234722862297153e-21  1.3111399418699497e-20  1.7254127253095308e-20  2.1206494988412083e-20  2.4925401773229403e-20  2.8370279726116955e-20  3.1503540944104773e-20  3.4290992477146526e-20  3.6702214143551120e-20  3.8710894797952398e-20  4.0295123293631587e-20  4.1437630960984190e-20  4.2125982990344298e-20  4.2352716679172927e-20  4.2115425087905566e-20  4.1416785245805808e-20  4.0264530654539573e-20  3.8671368447419097e-20  3.6654842169702615e-20  3.4237141742169651e-20  3.1444862746884349e-20  2.8308717717782354e-20  2.4863202610438169e-20  2.1146222035072762e-20  1.7198677117690674e-20  1.3064019940691268e-20  8.7877783423868644e-21  4.4170544483123317e-21  0.0000000000000000e+00  0.0000000000000000e+00  5.0494708259355365e-21  1.0041693720370385e-20  1.4922190844300483e-20  1.9637703972545359e-20  2.4136769819630988e-20  2.8370279726116937e-20  3.2292016479639338e-20  3.5859161284164894e-20  3.9032764486359549e-20  4.1778174360330742e-20  4.4065418940893601e-20  4.5869536562183634e-20  4.7170851412386434e-20  4.7955191069679366e-20  4.8214043647853270e-20  4.7944652855720506e-20  4.7150049961198292e-20  4.5839022344779291e-20  4.4026019021853676e-20  4.1730994201440399e-20  3.8979190621357576e-20  3.5800865046017269e-20  3.2230958919636622e-20  2.8308717717782330e-20  2.4077263012154084e-20  1.9583121632032994e-20  1.4875716549629575e-20  1.0006824242457438e-20  5.0300033810718887e-21  0.0000000000000000e+00  0.0000000000000000e+00  5.6063451833309753e-21  1.1149514000125614e-20  1.6568953416848011e-20  2.1805466774417581e-20  2.6801855395564186e-20  3.1503540944104773e-20  3.5859161284164894e-20  3.9821132706961713e-20  4.3346171809119219e-20  4.6395770878849129e-20  4.8936621290790335e-20  5.0940980089079174e-20  5.2386975638608706e-20  5.3258848943612546e-20  5.3547127969894857e-20  5.3248733060327957e-20  5.2367012298813623e-20  5.0911706450099473e-20  4.8898843874478916e-20  4.6350566579057373e-20  4.3294889311351161e-20  3.9765394315686840e-20  3.5800865046017287e-20  3.1444862746884349e-20  2.6745250363475217e-20  2.1753668710971683e-20  1.6524970222172762e-20  1.1116615925730575e-20  5.5880416570214408e-21  0.0000000000000000e+00  0.0000000000000000e+00  6.1016362817170751e-21  1.2134870738738819e-20  1.8033747727955252e-20  2.3733787108382084e-20  2.9172685006825094e-20  3.4290992477146496e-20  3.9032764486359537e-20  4.3346171809119201e-20  4.7184068781219170e-20  5.0504510386285615e-20  5.3271212773344452e-20  5.5453951991523237e-20  5.7028896462345082e-20  5.7978869479073162e-20  5.8293538819285873e-20  5.7969531375134273e-20  5.7010471538985804e-20  5.5426942922975269e-20  5.3236373831034954e-20  5.0462847732069006e-20  4.7136840793145806e-20  4.3294889311351257e-20  3.8979190621357660e-20  3.4237141742169705e-20  2.9120820651946481e-20  2.3686415639922176e-20  1.7993608684523214e-20  1.2104919268466735e-20  6.0850155078601378e-21  0.0000000000000000e+00  0.0000000000000000e+00  6.5299499869147885e-21  1.2987029950341117e-20  1.9300611170104494e-20  2.5401641669485943e-20  3.1223398247402596e-20  3.6702214143551096e-20  4.1778174360330718e-20  4.6395770878849110e-20  5.0504510386285628e-20  5.4059467649838604e-20  5.7021778296066006e-20  5.9359065457130941e-20  6.1045795508127469e-20  6.2063558928673945e-20  6.2401273166906030e-20  6.2055305255865748e-20  6.1029512822360386e-20  5.9335203027715775e-20  5.6991009879086072e-20  5.4022691239263931e-20  5.0462847732069090e-20  4.6350566579057541e-20  4.1730994201440580e-20  3.6654842169702747e-20  3.1177831775686398e-20  2.5360083135325503e-20  1.9265455308933172e-20  1.2960844462925250e-20  6.5154476126755183e-21  0.0000000000000000e+00  0.0000000000000000e+00  6.8866208172943093e-21  1.3696707529137950e-20  2.0355737357243514e-20  2.6790847129875481e-20  3.2931628128436036e-20  3.8710894797952362e-20  4.4065418940893565e-20  4.8936621290790341e-20  5.3271212773344458e-20  5.7021778296066018e-20  6.0147296543988585e-20  6.2613589979551413e-20  6.4393700032731600e-20  6.5468183309187369e-20  6.5825325527817871e-20  6.5461270814186818e-20  6.4380064912589550e-20  6.2593611827098637e-20  6.0121544350484828e-20  5.6991009879086144e-20  5.3236373831035147e-20  4.8898843874479139e-20  4.4026019021853965e-20  3.8671368447419302e-20  3.2893645631754447e-20  2.6756244125555161e-20  2.0326501856822934e-20  1.3674961485508612e-20  6.8745948447299061e-21  0.0000000000000000e+00  0.0000000000000000e+00  7.1677645756829624e-21  1.4256173643173613e-20  2.1187630689804225e-20  2.7886262771457519e-20  3.4278749290367139e-20  4.0295123293631526e-20  4.5869536562183586e-20  5.0940980089079150e-20  5.5453951991523201e-20  5.9359065457130929e-20  6.2613589979551377e-20  6.5181919877727388e-20  6.7035964902869389e-20  6.8155458604821734e-20  6.8528181043032449e-20  6.8150093375599642e-20  6.7025382831995543e-20  6.5166417560279582e-20  6.2593611827098601e-20  5.9335203027715823e-20  5.5426942922975426e-20  5.0911706450099725e-20  4.5839022344779550e-20  4.0264530654539748e-20  3.4249373010897415e-20  2.7859522255661691e-20  2.1165058682567986e-20  1.4239400758884514e-20  7.1584987321171405e-21  0.0000000000000000e+00  0.0000000000000000e+00  7.3703219819701159e-21  1.4659339376256243e-20  2.1787234809520503e-20  2.8675959094357143e-20  3.5250084729091726e-20  4.1437630960984099e-20  4.7170851412386428e-20  5.2386975638608730e-20  5.7028896462345082e-20  6.1045795508127409e-20  6.4393700032731564e-20  6.7035964902869364e-20  6.8943674398222472e-20  7.0095959404241245e-20  7.0480226493722254e-20  7.0092296367740540e-20  6.8936450123906671e-20  6.7025382831995507e-20  6.4380064912589489e-20  6.1029512822360410e-20  5.7010471538985912e-20  5.2367012298813852e-20  4.7150049961198497e-20  4.1416785245805964e-20  3.5230077905239274e-20  2.8657757648699248e-20  2.1771880318182559e-20  1.4647937433017225e-20  7.3640277571381076e-21  0.0000000000000000e+00  0.0000000000000000e+00  7.4920930066948803e-21  1.4901824948022321e-20  2.2148033819193846e-20  2.9151350771522896e-20  3.5835068898914930e-20  4.2125982990344232e-20  4.7955191069679318e-20  5.3258848943612516e-20  5.7978869479073174e-20  6.2063558928673872e-20  6.5468183309187309e-20  6.8155458604821722e-20  7.0095959404241221e-20  7.1268441477422947e-20  7.1660074744840051e-20  7.1266584076179069e-20  7.0092296367740443e-20  6.8150093375599558e-20  6.5461270814186746e-20  6.2055305255865784e-20  5.7969531375134418e-20  5.3248733060328186e-20  4.7944652855720717e-20  4.2115425087905705e-20  3.5824938863420526e-20  2.9142137891857525e-20  2.2140264783350067e-20  1.4896058085246698e-20  7.4889108541570500e-21  0.0000000000000000e+00  0.0000000000000000e+00  7.5317616345931480e-21  1.4981008937442393e-20  2.2266125346462358e-20  2.9307292653248484e-20  3.6027365515692351e-20  4.2352716679172861e-20  4.8214043647853198e-20  5.3547127969894803e-20  5.8293538819285765e-20  6.2401273166905921e-20  6.5825325527817750e-20  6.8528181043032389e-20  7.0480226493722170e-20  7.1660074744839979e-20  7.2054799063496971e-20  7.1660074744840015e-20  7.0480226493722182e-20  6.8528181043032377e-20  6.5825325527817835e-20  6.2401273166906066e-20  5.8293538819286017e-20  5.3547127969895074e-20  4.8214043647853456e-20  4.2352716679173066e-20  3.6027365515692550e-20  2.9307292653248653e-20  2.2266125346462497e-20  1.4981008937442492e-20  7.5317616345932007e-21  0.0000000000000000e+00  0.0000000000000000e+00  7.4889108541569973e-21  1.4896058085246602e-20  2.2140264783349937e-20  2.9142137891857357e-20  3.5824938863420310e-20  4.2115425087905488e-20  4.7944652855720440e-20  5.3248733060327867e-20  5.7969531375134141e-20  6.2055305255865579e-20  6.5461270814186625e-20  6.8150093375599497e-20  7.0092296367740371e-20  7.1266584076178936e-20  7.1660074744839979e-20  7.1268441477422874e-20  7.0095959404241137e-20  6.8155458604821662e-20  6.5468183309187333e-20  6.2063558928673993e-20  5.7978869479073318e-20  5.3258848943612762e-20  4.7955191069679577e-20  4.2125982990344430e-20  3.5835068898915122e-20  2.9151350771523064e-20  2.2148033819194003e-20  1.4901824948022420e-20  7.4920930066949284e-21  0.0000000000000000e+00  0.0000000000000000e+00  7.3640277571380519e-21  1.4647937433017126e-20  2.1771880318182421e-20  2.8657757648699055e-20  3.5230077905239058e-20  4.1416785245805723e-20  4.7150049961198220e-20  5.2367012298813521e-20  5.7010471538985635e-20  6.1029512822360181e-20  6.4380064912589333e-20  6.7025382831995374e-20  6.8936450123906515e-20  7.0092296367740335e-20  7.0480226493722097e-20  7.0095959404241137e-20  6.8943674398222351e-20  6.7035964902869280e-20  6.4393700032731540e-20  6.1045795508127553e-20  5.7028896462345226e-20  5.2386975638608911e-20  4.7170851412386633e-20  4.1437630960984328e-20  3.5250084729091949e-20  2.8675959094357317e-20  2.1787234809520642e-20  1.4659339376256330e-20  7.3703219819701535e-21  0.0000000000000000e+00  0.0000000000000000e+00  7.1584987321170818e-21  1.4239400758884411e-20  2.1165058682567842e-20  2.7859522255661516e-20  3.4249373010897216e-20  4.0264530654539507e-20  4.5839022344779207e-20  5.0911706450099358e-20  5.5426942922975125e-20  5.9335203027715571e-20  6.2593611827098421e-20  6.5166417560279401e-20  6.7025382831995338e-20  6.8150093375599401e-20  6.8528181043032268e-20  6.8155458604821589e-20  6.7035964902869244e-20  6.5181919877727291e-20  6.2613589979551328e-20  5.9359065457130989e-20  5.5453951991523321e-20  5.0940980089079343e-20  4.5869536562183797e-20  4.0295123293631725e-20  3.4278749290367338e-20  2.7886262771457670e-20  2.1187630689804336e-20  1.4256173643173688e-20  7.1677645756829985e-21  0.0000000000000000e+00  0.0000000000000000e+00  6.8745948447298534e-21  1.3674961485508510e-20  2.0326501856822802e-20  2.6756244125555005e-20  3.2893645631754272e-20  3.8671368447419049e-20  4.4026019021853628e-20  4.8898843874478784e-20  5.3236373831034822e-20  5.6991009879085891e-20  6.0121544350484600e-20  6.2593611827098421e-20  6.4380064912589309e-20  6.5461270814186553e-20  6.5825325527817666e-20  6.5468183309187189e-20  6.4393700032731431e-20  6.2613589979551268e-20  6.0147296543988525e-20  5.7021778296066030e-20  5.3271212773344560e-20  4.8936621290790540e-20  4.4065418940893794e-20  3.8710894797952561e-20  3.2931628128436210e-20  2.6790847129875596e-20  2.0355737357243613e-20  1.3696707529138013e-20  6.8866208172943424e-21  0.0000000000000000e+00  0.0000000000000000e+00  6.5154476126754739e-21  1.2960844462925165e-20  1.9265455308933061e-20  2.5360083135325365e-20  3.1177831775686236e-20  3.6654842169702531e-20  4.1730994201440297e-20  4.6350566579057240e-20  5.0462847732068831e-20  5.4022691239263720e-20  5.6991009879085927e-20  5.9335203027715619e-20  6.1029512822360181e-20  6.2055305255865567e-20  6.2401273166905849e-20  6.2063558928673788e-20  6.1045795508127349e-20  5.9359065457130857e-20  5.7021778296065982e-20  5.4059467649838670e-20  5.0504510386285754e-20  4.6395770878849363e-20  4.1778174360330971e-20  3.6702214143551289e-20  3.1223398247402753e-20  2.5401641669486060e-20  1.9300611170104581e-20  1.2987029950341178e-20  6.5299499869148156e-21  0.0000000000000000e+00  0.0000000000000000e+00  6.0850155078600995e-21  1.2104919268466661e-20  1.7993608684523126e-20  2.3686415639922053e-20  2.9120820651946330e-20  3.4237141742169518e-20  3.8979190621357443e-20  4.3294889311351034e-20  4.7136840793145595e-20  5.0462847732068849e-20  5.3236373831034912e-20  5.5426942922975209e-20  5.7010471538985659e-20  5.7969531375134177e-20  5.8293538819285765e-20  5.7978869479073101e-20  5.7028896462345022e-20  5.5453951991523152e-20  5.3271212773344458e-20  5.0504510386285706e-20  4.7184068781219339e-20  4.3346171809119435e-20  3.9032764486359765e-20  3.4290992477146676e-20  2.9172685006825238e-20  2.3733787108382208e-20  1.8033747727955342e-20  1.2134870738738882e-20  6.1016362817171029e-21  0.0000000000000000e+00  0.0000000000000000e+00  5.5880416570214129e-21  1.1116615925730524e-20  1.6524970222172689e-20  2.1753668710971589e-20  2.6745250363475103e-20  3.1444862746884211e-20  3.5800865046017100e-20  3.9765394315686641e-20  4.3294889311351010e-20  4.6350566579057276e-20  4.8898843874478862e-20  5.0911706450099449e-20  5.2367012298813557e-20  5.3248733060327909e-20  5.3547127969894827e-20  5.3258848943612510e-20  5.2386975638608682e-20  5.0940980089079132e-20  4.8936621290790353e-20  4.6395770878849213e-20  4.3346171809119363e-20  3.9821132706961954e-20  3.5859161284165086e-20  3.1503540944104930e-20  2.6801855395564330e-20  2.1805466774417702e-20  1.6568953416848099e-20  1.1149514000125676e-20  5.6063451833310061e-21  0.0000000000000000e+00  0.0000000000000000e+00  5.0300033810718601e-21  1.0006824242457386e-20  1.4875716549629503e-20  1.9583121632032904e-20  2.4077263012153970e-20  2.8308717717782203e-20  3.2230958919636447e-20  3.5800865046017070e-20  3.8979190621357407e-20  4.1730994201440309e-20  4.4026019021853688e-20  4.5839022344779279e-20  4.7150049961198238e-20  4.7944652855720440e-20  4.8214043647853192e-20  4.7955191069679318e-20  4.7170851412386392e-20  4.5869536562183562e-20  4.4065418940893583e-20  4.1778174360330802e-20  3.9032764486359663e-20  3.5859161284165062e-20  3.2292016479639483e-20  2.8370279726117057e-20  2.4136769819631103e-20  1.9637703972545455e-20  1.4922190844300552e-20  1.0041693720370431e-20  5.0494708259355598e-21  0.0000000000000000e+00  0.0000000000000000e+00  4.4170544483123039e-21  8.7877783423868133e-21  1.3064019940691196e-20  1.7198677117690580e-20  2.1146222035072659e-20  2.4863202610438046e-20  2.8308717717782185e-20  3.1444862746884175e-20  3.4237141742169518e-20  3.6654842169702525e-20  3.8671368447419073e-20  4.0264530654539531e-20  4.1416785245805753e-20  4.2115425087905494e-20  4.2352716679172855e-20  4.2125982990344250e-20  4.1437630960984154e-20  4.0295123293631538e-20  3.8710894797952380e-20  3.6702214143551156e-20  3.4290992477146592e-20  3.1503540944104900e-20  2.8370279726117051e-20  2.4925401773229500e-20  2.1206494988412173e-20  1.7254127253095386e-20  1.3111399418699550e-20  8.8234722862297544e-21  4.4370746163262230e-21  0.0000000000000000e+00  0.0000000000000000e+00  3.7559613069445715e-21  7.4729285018827006e-21  1.1109855608452034e-20  1.4626605141866665e-20  1.7984394975158445e-20  2.1146222035072653e-20  2.4077263012153952e-20  2.6745250363475079e-20  2.9120820651946324e-20  3.1177831775686236e-20  3.2893645631754266e-20  3.4249373010897252e-20  3.5230077905239118e-20  3.5824938863420358e-20  3.6027365515692393e-20  3.5835068898914960e-20  3.5250084729091792e-20  3.4278749290367182e-20  3.2931628128436066e-20  3.1223398247402657e-20  2.9172685006825172e-20  2.6801855395564303e-20  2.4136769819631097e-20  2.1206494988412173e-20  1.8042980940172758e-20  1.4680705771450997e-20  1.1156292348405328e-20  7.5081023961777086e-21  3.7758151391154448e-21  0.0000000000000000e+00  0.0000000000000000e+00  3.0540353440513293e-21  6.0768032722868838e-21  9.0347922058405219e-21  1.1895262607664227e-20  1.4626605141866674e-20  1.7198677117690593e-20  1.9583121632032901e-20  2.1753668710971577e-20  2.3686415639922056e-20  2.5360083135325380e-20  2.6756244125555023e-20  2.7859522255661558e-20  2.8657757648699097e-20  2.9142137891857399e-20  2.9307292653248526e-20  2.9151350771522944e-20  2.8675959094357191e-20  2.7886262771457555e-20  2.6790847129875509e-20  2.5401641669486000e-20  2.3733787108382172e-20  2.1805466774417684e-20  1.96377039725