<?xml version="1.0"?>
<VTKFile type="UnstructuredGrid"  version="0.1"  >
<UnstructuredGrid>
<Piece  NumberOfPoints="961" NumberOfCells="1800">
<Points>
<DataArray  type="Float64"  NumberOfComponents="3"  format="ascii">-2 -2 0  -1.866666666666667 -2 0  -1.733333333333333 -2 0  -1.6 -2 0  -1.466666666666667 -2 0  -1.333333333333333 -2 0  -1.2 -2 0  -1.066666666666667 -2 0  -0.9333333333333333 -2 0  -0.8 -2 0  -0.6666666666666667 -2 0  -0.5333333333333334 -2 0  -0.3999999999999999 -2 0  -0.2666666666666666 -2 0  -0.1333333333333333 -2 0  0 -2 0  0.1333333333333333 -2 0  0.2666666666666666 -2 0  0.3999999999999999 -2 0  0.5333333333333332 -2 0  0.6666666666666665 -2 0  0.7999999999999998 -2 0  0.9333333333333331 -2 0  1.066666666666667 -2 0  1.2 -2 0  1.333333333333333 -2 0  1.466666666666667 -2 0  1.6 -2 0  1.733333333333333 -2 0  1.866666666666667 -2 0  2 -2 0  -2 -1.866666666666667 0  -1.866666666666667 -1.866666666666667 0  -1.733333333333333 -1.866666666666667 0  -1.6 -1.866666666666667 0  -1.466666666666667 -1.866666666666667 0  -1.333333333333333 -1.866666666666667 0  -1.2 -1.866666666666667 0  -1.066666666666667 -1.866666666666667 0  -0.9333333333333333 -1.866666666666667 0  -0.8 -1.866666666666667 0  -0.6666666666666667 -1.866666666666667 0  -0.5333333333333334 -1.866666666666667 0  -0.3999999999999999 -1.866666666666667 0  -0.2666666666666666 -1.866666666666667 0  -0.1333333333333333 -1.866666666666667 0  0 -1.866666666666667 0  0.1333333333333333 -1.866666666666667 0  0.2666666666666666 -1.866666666666667 0  0.3999999999999999 -1.866666666666667 0  0.5333333333333332 -1.866666666666667 0  0.6666666666666665 -1.866666666666667 0  0.7999999999999998 -1.866666666666667 0  0.9333333333333331 -1.866666666666667 0  1.066666666666667 -1.866666666666667 0  1.2 -1.866666666666667 0  1.333333333333333 -1.866666666666667 0  1.466666666666667 -1.866666666666667 0  1.6 -1.866666666666667 0  1.733333333333333 -1.866666666666667 0  1.866666666666667 -1.866666666666667 0  2 -1.866666666666667 0  -2 -1.733333333333333 0  -1.866666666666667 -1.733333333333333 0  -1.733333333333333 -1.733333333333333 0  -1.6 -1.733333333333333 0  -1.466666666666667 -1.733333333333333 0  -1.333333333333333 -1.733333333333333 0  -1.2 -1.733333333333333 0  -1.066666666666667 -1.733333333333333 0  -0.9333333333333333 -1.733333333333333 0  -0.8 -1.733333333333333 0  -0.6666666666666667 -1.733333333333333 0  -0.5333333333333334 -1.733333333333333 0  -0.3999999999999999 -1.733333333333333 0  -0.2666666666666666 -1.733333333333333 0  -0.1333333333333333 -1.733333333333333 0  0 -1.733333333333333 0  0.1333333333333333 -1.733333333333333 0  0.2666666666666666 -1.733333333333333 0  0.3999999999999999 -1.733333333333333 0  0.5333333333333332 -1.733333333333333 0  0.6666666666666665 -1.733333333333333 0  0.7999999999999998 -1.733333333333333 0  0.9333333333333331 -1.733333333333333 0  1.066666666666667 -1.733333333333333 0  1.2 -1.733333333333333 0  1.333333333333333 -1.733333333333333 0  1.466666666666667 -1.733333333333333 0  1.6 -1.733333333333333 0  1.733333333333333 -1.733333333333333 0  1.866666666666667 -1.733333333333333 0  2 -1.733333333333333 0  -2 -1.6 0  -1.866666666666667 -1.6 0  -1.733333333333333 -1.6 0  -1.6 -1.6 0  -1.466666666666667 -1.6 0  -1.333333333333333 -1.6 0  -1.2 -1.6 0  -1.066666666666667 -1.6 0  -0.9333333333333333 -1.6 0  -0.8 -1.6 0  -0.6666666666666667 -1.6 0  -0.5333333333333334 -1.6 0  -0.3999999999999999 -1.6 0  -0.2666666666666666 -1.6 0  -0.1333333333333333 -1.6 0  0 -1.6 0  0.1333333333333333 -1.6 0  0.2666666666666666 -1.6 0  0.3999999999999999 -1.6 0  0.5333333333333332 -1.6 0  0.6666666666666665 -1.6 0  0.7999999999999998 -1.6 0  0.9333333333333331 -1.6 0  1.066666666666667 -1.6 0  1.2 -1.6 0  1.333333333333333 -1.6 0  1.466666666666667 -1.6 0  1.6 -1.6 0  1.733333333333333 -1.6 0  1.866666666666667 -1.6 0  2 -1.6 0  -2 -1.466666666666667 0  -1.866666666666667 -1.466666666666667 0  -1.733333333333333 -1.466666666666667 0  -1.6 -1.466666666666667 0  -1.466666666666667 -1.466666666666667 0  -1.333333333333333 -1.466666666666667 0  -1.2 -1.466666666666667 0  -1.066666666666667 -1.466666666666667 0  -0.9333333333333333 -1.466666666666667 0  -0.8 -1.466666666666667 0  -0.6666666666666667 -1.466666666666667 0  -0.5333333333333334 -1.466666666666667 0  -0.3999999999999999 -1.466666666666667 0  -0.2666666666666666 -1.466666666666667 0  -0.1333333333333333 -1.466666666666667 0  0 -1.466666666666667 0  0.1333333333333333 -1.466666666666667 0  0.2666666666666666 -1.466666666666667 0  0.3999999999999999 -1.466666666666667 0  0.5333333333333332 -1.466666666666667 0  0.6666666666666665 -1.466666666666667 0  0.7999999999999998 -1.466666666666667 0  0.9333333333333331 -1.466666666666667 0  1.066666666666667 -1.466666666666667 0  1.2 -1.466666666666667 0  1.333333333333333 -1.466666666666667 0  1.466666666666667 -1.466666666666667 0  1.6 -1.466666666666667 0  1.733333333333333 -1.466666666666667 0  1.866666666666667 -1.466666666666667 0  2 -1.466666666666667 0  -2 -1.333333333333333 0  -1.866666666666667 -1.333333333333333 0  -1.733333333333333 -1.333333333333333 0  -1.6 -1.333333333333333 0  -1.466666666666667 -1.333333333333333 0  -1.333333333333333 -1.333333333333333 0  -1.2 -1.333333333333333 0  -1.066666666666667 -1.333333333333333 0  -0.9333333333333333 -1.333333333333333 0  -0.8 -1.333333333333333 0  -0.6666666666666667 -1.333333333333333 0  -0.5333333333333334 -1.333333333333333 0  -0.3999999999999999 -1.333333333333333 0  -0.2666666666666666 -1.333333333333333 0  -0.1333333333333333 -1.333333333333333 0  0 -1.333333333333333 0  0.1333333333333333 -1.333333333333333 0  0.2666666666666666 -1.333333333333333 0  0.3999999999999999 -1.333333333333333 0  0.5333333333333332 -1.333333333333333 0  0.6666666666666665 -1.333333333333333 0  0.7999999999999998 -1.333333333333333 0  0.9333333333333331 -1.333333333333333 0  1.066666666666667 -1.333333333333333 0  1.2 -1.333333333333333 0  1.333333333333333 -1.333333333333333 0  1.466666666666667 -1.333333333333333 0  1.6 -1.333333333333333 0  1.733333333333333 -1.333333333333333 0  1.866666666666667 -1.333333333333333 0  2 -1.333333333333333 0  -2 -1.2 0  -1.866666666666667 -1.2 0  -1.733333333333333 -1.2 0  -1.6 -1.2 0  -1.466666666666667 -1.2 0  -1.333333333333333 -1.2 0  -1.2 -1.2 0  -1.066666666666667 -1.2 0  -0.9333333333333333 -1.2 0  -0.8 -1.2 0  -0.6666666666666667 -1.2 0  -0.5333333333333334 -1.2 0  -0.3999999999999999 -1.2 0  -0.2666666666666666 -1.2 0  -0.1333333333333333 -1.2 0  0 -1.2 0  0.1333333333333333 -1.2 0  0.2666666666666666 -1.2 0  0.3999999999999999 -1.2 0  0.5333333333333332 -1.2 0  0.6666666666666665 -1.2 0  0.7999999999999998 -1.2 0  0.9333333333333331 -1.2 0  1.066666666666667 -1.2 0  1.2 -1.2 0  1.333333333333333 -1.2 0  1.466666666666667 -1.2 0  1.6 -1.2 0  1.733333333333333 -1.2 0  1.866666666666667 -1.2 0  2 -1.2 0  -2 -1.066666666666667 0  -1.866666666666667 -1.066666666666667 0  -1.733333333333333 -1.066666666666667 0  -1.6 -1.066666666666667 0  -1.466666666666667 -1.066666666666667 0  -1.333333333333333 -1.066666666666667 0  -1.2 -1.066666666666667 0  -1.066666666666667 -1.066666666666667 0  -0.9333333333333333 -1.066666666666667 0  -0.8 -1.066666666666667 0  -0.6666666666666667 -1.066666666666667 0  -0.5333333333333334 -1.066666666666667 0  -0.3999999999999999 -1.066666666666667 0  -0.2666666666666666 -1.066666666666667 0  -0.1333333333333333 -1.066666666666667 0  0 -1.066666666666667 0  0.1333333333333333 -1.066666666666667 0  0.2666666666666666 -1.066666666666667 0  0.3999999999999999 -1.066666666666667 0  0.5333333333333332 -1.066666666666667 0  0.6666666666666665 -1.066666666666667 0  0.7999999999999998 -1.066666666666667 0  0.9333333333333331 -1.066666666666667 0  1.066666666666667 -1.066666666666667 0  1.2 -1.066666666666667 0  1.333333333333333 -1.066666666666667 0  1.466666666666667 -1.066666666666667 0  1.6 -1.066666666666667 0  1.733333333333333 -1.066666666666667 0  1.866666666666667 -1.066666666666667 0  2 -1.066666666666667 0  -2 -0.9333333333333333 0  -1.866666666666667 -0.9333333333333333 0  -1.733333333333333 -0.9333333333333333 0  -1.6 -0.9333333333333333 0  -1.466666666666667 -0.9333333333333333 0  -1.333333333333333 -0.9333333333333333 0  -1.2 -0.9333333333333333 0  -1.066666666666667 -0.9333333333333333 0  -0.9333333333333333 -0.9333333333333333 0  -0.8 -0.9333333333333333 0  -0.6666666666666667 -0.9333333333333333 0  -0.5333333333333334 -0.9333333333333333 0  -0.3999999999999999 -0.9333333333333333 0  -0.2666666666666666 -0.9333333333333333 0  -0.1333333333333333 -0.9333333333333333 0  0 -0.9333333333333333 0  0.1333333333333333 -0.9333333333333333 0  0.2666666666666666 -0.9333333333333333 0  0.3999999999999999 -0.9333333333333333 0  0.5333333333333332 -0.9333333333333333 0  0.6666666666666665 -0.9333333333333333 0  0.7999999999999998 -0.9333333333333333 0  0.9333333333333331 -0.9333333333333333 0  1.066666666666667 -0.9333333333333333 0  1.2 -0.9333333333333333 0  1.333333333333333 -0.9333333333333333 0  1.466666666666667 -0.9333333333333333 0  1.6 -0.9333333333333333 0  1.733333333333333 -0.9333333333333333 0  1.866666666666667 -0.9333333333333333 0  2 -0.9333333333333333 0  -2 -0.8 0  -1.866666666666667 -0.8 0  -1.733333333333333 -0.8 0  -1.6 -0.8 0  -1.466666666666667 -0.8 0  -1.333333333333333 -0.8 0  -1.2 -0.8 0  -1.066666666666667 -0.8 0  -0.9333333333333333 -0.8 0  -0.8 -0.8 0  -0.6666666666666667 -0.8 0  -0.5333333333333334 -0.8 0  -0.3999999999999999 -0.8 0  -0.2666666666666666 -0.8 0  -0.1333333333333333 -0.8 0  0 -0.8 0  0.1333333333333333 -0.8 0  0.2666666666666666 -0.8 0  0.3999999999999999 -0.8 0  0.5333333333333332 -0.8 0  0.6666666666666665 -0.8 0  0.7999999999999998 -0.8 0  0.9333333333333331 -0.8 0  1.066666666666667 -0.8 0  1.2 -0.8 0  1.333333333333333 -0.8 0  1.466666666666667 -0.8 0  1.6 -0.8 0  1.733333333333333 -0.8 0  1.866666666666667 -0.8 0  2 -0.8 0  -2 -0.6666666666666667 0  -1.866666666666667 -0.
[...]
<PointData  Scalars="f_10422"> 
<DataArray  type="Float64"  Name="f_10422"  format="ascii">0.0000000000000000e+00  0.0000000000000000e+00  0.0000000000000000e+00  0.0000000000000000e+00  0.0000000000000000e+00  0.0000000000000000e+00  0.0000000000000000e+00  0.0000000000000000e+00  0.0000000000000000e+00  0.0000000000000000e+00  0.0000000000000000e+00  0.0000000000000000e+00  0.0000000000000000e+00  0.0000000000000000e+00  0.0000000000000000e+00  0.0000000000000000e+00  0.0000000000000000e+00  0.0000000000000000e+00  0.0000000000000000e+00  0.0000000000000000e+00  0.0000000000000000e+00  0.0000000000000000e+00  0.0000000000000000e+00  0.0000000000000000e+00  0.0000000000000000e+00  0.0000000000000000e+00  0.0000000000000000e+00  0.0000000000000000e+00  0.0000000000000000e+00  0.0000000000000000e+00  0.0000000000000000e+00  0.0000000000000000e+00  2.7780809338327502e-21  5.5207134521375450e-21  8.1998801316558127e-21  1.0787199103363593e-20  1.3254868001696691e-20  1.5576196446646254e-20  1.7725992086538920e-20  1.9680880191186807e-20  2.1419582402402867e-20  2.2923162799361449e-20  2.4175243370722182e-20  2.5162188777116093e-20  2.5873259521890762e-20  2.6300732477978433e-20  2.6439987819468267e-20  2.6289561641934607e-20  2.5851163864066437e-20  2.5129661354860262e-20  2.4133026611410429e-20  2.2872252717916593e-20  2.1361235752621830e-20  1.9616626297322896e-20  1.7657652296985954e-20  1.5505916341657333e-20  1.3185171812911886e-20  1.0721085081352911e-20  8.1409974338568004e-21  5.4737180552754645e-21  2.7494333204717857e-21  0.0000000000000000e+00  0.0000000000000000e+00  5.5207134521375435e-21  1.0974075766043532e-20  1.6302365106879657e-20  2.1448494582389021e-20  2.6356932884132761e-20  3.0974493231679524e-20  3.5251017296402432e-20  3.9139981940258975e-20  4.2599042573179719e-20  4.5590517910307737e-20  4.8081816420467198e-20  5.0045802796850657e-20  5.1461102110489616e-20  5.2312339294423499e-20  5.2590311941107865e-20  5.2292094922795171e-20  5.1421075984466786e-20  4.9986922168676418e-20  4.8005477689028536e-20  4.5498594665532736e-20  4.2493898976290965e-20  3.9024494391862085e-20  3.5128609204375805e-20  3.0849190880620022e-20  2.6233456148962309e-20  2.1332406984657499e-20  1.6200328399808947e-20  1.0894293755204993e-20  5.4737180552754652e-21  0.0000000000000000e+00  0.0000000000000000e+00  8.1998801316558112e-21  1.6302365106879657e-20  2.4220381728907876e-20  3.1868464560951183e-20  3.9163777096644097e-20  4.6027112612589118e-20  5.2383833066485093e-20  5.8164735924553903e-20  6.3306845516262179e-20  6.7754125661920293e-20  7.1458109522459021e-20  7.4378442194563123e-20  7.6483331646851048e-20  7.7749904048349414e-20  7.8164460256318200e-20  7.7722631117653005e-20  7.6429430237904671e-20  7.4299203946548297e-20  7.1355479312885149e-20  6.7630712231404242e-20  6.3165938797367279e-20  5.8010334446135694e-20  5.2220686667988724e-20  4.5860788599402476e-20  3.9000762532680816e-20  3.1716324475363486e-20  2.4088003193061064e-20  1.6200328399808950e-20  8.1409974338568034e-21  0.0000000000000000e+00  0.0000000000000000e+00  1.0787199103363587e-20  2.1448494582389006e-20  3.1868464560951177e-20  4.1934112963959662e-20  5.1536108099274249e-20  6.0570014896924877e-20  6.8937478245681221e-20  7.6547334326859968e-20  8.3316635934585144e-20  8.9171581486458358e-20  9.4048339041123381e-20  9.7893757633190845e-20  1.0066595916737723e-19  1.0233480515103245e-19  1.0288223371468114e-19  1.0230246365671061e-19  1.0060206362409753e-19  9.7799885980550559e-20  9.3926866395395002e-20  8.9025691694626352e-20  8.3150340038639799e-20  7.6365499022846689e-20  6.8745868833657736e-20  6.0375359121049898e-20  5.1346189716745748e-20  4.1757906544928510e-20  3.1716324475363498e-20  2.1332406984657508e-20  1.0721085081352919e-20  0.0000000000000000e+00  0.0000000000000000e+00  1.3254868001696684e-20  2.6356932884132746e-20  3.9163777096644066e-20  5.1536108099274219e-20  6.3339258387301825e-20  7.4444664660117924e-20  8.4731292756428778e-20  9.4086983175768543e-20  1.0240969824363044e-19  1.0960865590222880e-19  1.1560533761344115e-19  1.2033435969895379e-19  1.2374419904524160e-19  1.2579776567083255e-19  1.2647281627014629e-19  1.2576220453280370e-19  1.2367396578446748e-19  1.2023123528941351e-19  1.1547200137706781e-19  1.0944869638470747e-19  1.0222763022584325e-19  9.3888273175165322e-20  8.4522396174035782e-20  7.4233078549264914e-20  6.3133594390415396e-20  5.1346189716745754e-20  3.9000762532680834e-20  2.6233456148962333e-20  1.3185171812911897e-20  0.0000000000000000e+00  0.0000000000000000e+00  1.5576196446646233e-20  3.0974493231679470e-20  4.6027112612589076e-20  6.0570014896924793e-20  7.4444664660117864e-20  8.7499757859123347e-20  9.9592882354136814e-20  1.1059208711631534e-19  1.2037733898122811e-19  1.2884184895681747e-19  1.3589325268043511e-19  1.4145463183197745e-19  1.4546536534612749e-19  1.4788180125511794e-19  1.4867774200068771e-19  1.4784473810503135e-19  1.4539218718646917e-19  1.4134723743419903e-19  1.3575449679869736e-19  1.2867555128672325e-19  1.2018829784504585e-19  1.1038609934146981e-19  9.9376771060461111e-20  8.7281409856840841e-20  7.4233078549264890e-20  6.0375359121049886e-20  4.5860788599402452e-20  3.0849190880620034e-20  1.5505916341657339e-20  0.0000000000000000e+00  0.0000000000000000e+00  1.7725992086538893e-20  3.5251017296402359e-20  5.2383833066485057e-20  6.8937478245681137e-20  8.4731292756428681e-20  9.9592882354136778e-20  1.1336000311882547e-19  1.2588234115309724e-19  1.3702316505071708e-19  1.4666083113056861e-19  1.5469012384908320e-19  1.6102341614456797e-19  1.6559163676252096e-19  1.6834503390800447e-19  1.6925372689989648e-19  1.6830803987364316e-19  1.6551861399006418e-19  1.6091629704340246e-19  1.5455181180071492e-19  1.4649520682022782e-19  1.3683509585697258e-19  1.2567769423232048e-19  1.1314566267351134e-19  9.9376771060461063e-20  8.4522396174035746e-20  6.8745868833657687e-20  5.2220686667988658e-20  3.5128609204375793e-20  1.7657652296985951e-20  0.0000000000000000e+00  0.0000000000000000e+00  1.9680880191186795e-20  3.9139981940258933e-20  5.8164735924553879e-20  7.6547334326859908e-20  9.4086983175768471e-20  1.1059208711631524e-19  1.2588234115309726e-19  1.3979070432788159e-19  1.5216523175531884e-19  1.6287074344963256e-19  1.7179031063750810e-19  1.7882654263523823e-19  1.8390265982686145e-19  1.8696334080467443e-19  1.8797533432137108e-19  1.8692782934748765e-19  1.8383257921536232e-19  1.7872377854157659e-19  1.7165769432865704e-19  1.6271205532408281e-19  1.5198520632672443e-19  1.3959503663977849e-19  1.2567769423232048e-19  1.1038609934146979e-19  9.3888273175165273e-20  7.6365499022846641e-20  5.8010334446135646e-20  3.9024494391862066e-20  1.9616626297322893e-20  0.0000000000000000e+00  0.0000000000000000e+00  2.1419582402402855e-20  4.2599042573179701e-20  6.3306845516262131e-20  8.3316635934585072e-20  1.0240969824363038e-19  1.2037733898122804e-19  1.3702316505071711e-19  1.5216523175531891e-19  1.6563803587708374e-19  1.7729433089178305e-19  1.8700674359984677e-19  1.9466917387069530e-19  2.0019796177518903e-19  2.0353280908046642e-19  2.0463744487830832e-19  2.0350002799067901e-19  2.0013328172119532e-19  1.9457435947293973e-19  1.8688444270199630e-19  1.7714807559010777e-19  1.6547224366405585e-19  1.5198520632672479e-19  1.3683509585697287e-19  1.2018829784504602e-19  1.0222763022584337e-19  8.3150340038639907e-20  6.3165938797367364e-20  4.2493898976291031e-20  2.1361235752621875e-20  0.0000000000000000e+00  0.0000000000000000e+00  2.2923162799361422e-20  4.5590517910307689e-20  6.7754125661920233e-20  8.9171581486458285e-20  1.0960865590222873e-19  1.2884184895681747e-19  1.4666083113056861e-19  1.6287074344963258e-19  1.7729433089178312e-19  1.8977388498645385e-19  2.0017297369951093e-19  2.0837793916009060e-19  2.1429914646413564e-19  2.1787196962927048e-19  2.1905750374180874e-19  2.1784299539733092e-19  2.1424198666086032e-19  2.0829417092980268e-19  2.0006496223955727e-19  1.8964478267350060e-19  1.7714807559010813e-19  1.6271205532408348e-19  1.4649520682022844e-19  1.2867555128672366e-19  1.0944869638470776e-19  8.9025691694626592e-20  6.7630712231404434e-20  4.5498594665532875e-20  2.2872252717916671e-20  0.0000000000000000e+00  0.0000000000000000e+00  2.4175243370722146e-20  4.8081816420467120e-20  7.1458109522458949e-20  9.4048339041123333e-20  1.1560533761344112e-19  1.3589325268043513e-19  1.5469012384908315e-19  1.7179031063750808e-19  1.8700674359984682e-19  2.0017297369951095e-19  2.1114499703400430e-19  2.1980283454389226e-19  2.2605184910473863e-19  2.2982378535551292e-19  2.3107752071896866e-19  2.2979951928171975e-19  2.2600398348870312e-19  2.1973270193307241e-19  2.1105459485246992e-19  2.0006496223955770e-19  1.8688444270199712e-19  1.7165769432865802e-19  1.5455181180071584e-19  1.3575449679869796e-19  1.1547200137706825e-19  9.3926866395395303e-20  7.1355479312885389e-20  4.8005477689028735e-20  2.4133026611410534e-20  0.0000000000000000e+00  0.0000000000000000e+00  2.5162188777116036e-20  5.0045802796850543e-20  7.4378442194562979e-20  9.7893757633190640e-20  1.2033435969895355e-19  1.4145463183197728e-19  1.6102341614456785e-19  1.7882654263523813e-19  1.9466917387069521e-19  2.0837793916009058e-19  2.1980283454389216e-19  2.2881886751448647e-19  2.3532742822840343e-19  2.3925737201574296e-19  2.4056580119930491e-19  2.3923853756476540e-19  2.3529028023586426e-19  2.2876444716711235e-19  2.1973270193307226e-19  2.0829417092980295e-19  1.9457435947294033e-19  1.7872377854157751e-19  1.6091629704340332e-19  1.4134723743419963e-19  1.2023123528941388e-19  9.7799885980550860e-20  7.4299203946548561e-20  4.9986922168676629e-20  2.5129661354860380e-20  0.0000000000000000e+00  0.0000000000000000e+00  2.5873259521890684e-20  5.1461102110489447e-20  7.6483331646850796e-20  1.0066595916737692e-19  1.2374419904524119e-19  1.4546536534612718e-19  1.6559163676252089e-19  1.8390265982686140e-19  2.0019796177518903e-19  2.1429914646413549e-19  2.2605184910473858e-19  2.3532742822840348e-19  2.4202437620250697e-19  2.4606943272471037e-19  2.4741838900588570e-19  2.4605657376220454e-19  2.4199901563824834e-19  2.3529028023586407e-19  2.2600398348870292e-19  2.1424198666086049e-19  2.0013328172119588e-19  1.8383257921536316e-19  1.6551861399006497e-19  1.4539218718646973e-19  1.2367396578446786e-19  1.0060206362409777e-19  7.6429430237904900e-20  5.1421075984466955e-20  2.5851163864066531e-20  0.0000000000000000e+00  0.0000000000000000e+00  2.6300732477978327e-20  5.2312339294423252e-20  7.7749904048349089e-20  1.0233480515103210e-19  1.2579776567083217e-19  1.4788180125511765e-19  1.6834503390800430e-19  1.8696334080467426e-19  2.0353280908046635e-19  2.1787196962927034e-19  2.2982378535551277e-19  2.3925737201574296e-19  2.4606943272471032e-19  2.5018539035022594e-19  2.5156020534339394e-19  2.5017887000762249e-19  2.4605657376220435e-19  2.3923853756476521e-19  2.2979951928171956e-19  2.1784299539733106e-19  2.0350002799067947e-19  1.8692782934748852e-19  1.6830803987364395e-19  1.4784473810503186e-19  1.2576220453280411e-19  1.0230246365671089e-19  7.7722631117653222e-20  5.2292094922795333e-20  2.6289561641934691e-20  0.0000000000000000e+00  0.0000000000000000e+00  2.6439987819468158e-20  5.2590311941107642e-20  7.8164460256317875e-20  1.0288223371468075e-19  1.2647281627014593e-19  1.4867774200068747e-19  1.6925372689989616e-19  1.8797533432137079e-19  2.0463744487830803e-19  2.1905750374180845e-19  2.3107752071896818e-19  2.4056580119930467e-19  2.4741838900588536e-19  2.5156020534339379e-19  2.5294587136466077e-19  2.5156020534339370e-19  2.4741838900588551e-19  2.4056580119930472e-19  2.3107752071896842e-19  2.1905750374180898e-19  2.0463744487830873e-19  1.8797533432137185e-19  1.6925372689989715e-19  1.4867774200068826e-19  1.2647281627014670e-19  1.0288223371468145e-19  7.8164460256318404e-20  5.2590311941108015e-20  2.6439987819468351e-20  0.0000000000000000e+00  0.0000000000000000e+00  2.6289561641934508e-20  5.2292094922794984e-20  7.7722631117652704e-20  1.0230246365671026e-19  1.2576220453280339e-19  1.4784473810503107e-19  1.6830803987364294e-19  1.8692782934748732e-19  2.0350002799067846e-19  2.1784299539733044e-19  2.2979951928171922e-19  2.3923853756476497e-19  2.4605657376220406e-19  2.5017887000762210e-19  2.5156020534339365e-19  2.5018539035022566e-19  2.4606943272471008e-19  2.3925737201574267e-19  2.2982378535551297e-19  2.1787196962927072e-19  2.0353280908046695e-19  1.8696334080467522e-19  1.6834503390800524e-19  1.4788180125511847e-19  1.2579776567083296e-19  1.0233480515103277e-19  7.7749904048349642e-20  5.2312339294423656e-20  2.6300732477978505e-20  0.0000000000000000e+00  0.0000000000000000e+00  2.5851163864066332e-20  5.1421075984466588e-20  7.6429430237904382e-20  1.0060206362409714e-19  1.2367396578446709e-19  1.4539218718646891e-19  1.6551861399006394e-19  1.8383257921536191e-19  2.0013328172119470e-19  2.1424198666085958e-19  2.2600398348870235e-19  2.3529028023586373e-19  2.4199901563824786e-19  2.4605657376220387e-19  2.4741838900588522e-19  2.4606943272470984e-19  2.4202437620250654e-19  2.3532742822840305e-19  2.2605184910473843e-19  2.1429914646413585e-19  2.0019796177518963e-19  1.8390265982686220e-19  1.6559163676252171e-19  1.4546536534612802e-19  1.2374419904524201e-19  1.0066595916737754e-19  7.6483331646851301e-20  5.1461102110489778e-20  2.5873259521890852e-20  0.0000000000000000e+00  0.0000000000000000e+00  2.5129661354860169e-20  4.9986922168676238e-20  7.4299203946548044e-20  9.7799885980550222e-20  1.2023123528941315e-19  1.4134723743419876e-19  1.6091629704340214e-19  1.7872377854157618e-19  1.9457435947293913e-19  2.0829417092980201e-19  2.1973270193307159e-19  2.2876444716711177e-19  2.3529028023586335e-19  2.3923853756476454e-19  2.4056580119930419e-19  2.3925737201574238e-19  2.3532742822840285e-19  2.2881886751448608e-19  2.1980283454389201e-19  2.0837793916009077e-19  1.9466917387069578e-19  1.7882654263523890e-19  1.6102341614456867e-19  1.4145463183197800e-19  1.2033435969895423e-19  9.7893757633191170e-20  7.4378442194563376e-20  5.0045802796850813e-20  2.5162188777116175e-20  0.0000000000000000e+00  0.0000000000000000e+00  2.4133026611410345e-20  4.8005477689028380e-20  7.1355479312884920e-20  9.3926866395394773e-20  1.1547200137706755e-19  1.3575449679869710e-19  1.5455181180071471e-19  1.7165769432865670e-19  1.8688444270199596e-19  2.0006496223955676e-19  2.1105459485246915e-19  2.1973270193307159e-19  2.2600398348870206e-19  2.2979951928171883e-19  2.3107752071896774e-19  2.2982378535551220e-19  2.2605184910473800e-19  2.1980283454389168e-19  2.1114499703400408e-19  2.0017297369951097e-19  1.8700674359984723e-19  1.7179031063750882e-19  1.5469012384908397e-19  1.3589325268043581e-19  1.1560533761344168e-19  9.4048339041123754e-20  7.1458109522459298e-20  4.8081816420467367e-20  2.4175243370722266e-20  0.0000000000000000e+00  0.0000000000000000e+00  2.2872252717916515e-20  4.5498594665532586e-20  6.7630712231404025e-20  8.9025691694626099e-20  1.0944869638470723e-19  1.2867555128672299e-19  1.4649520682022755e-19  1.6271205532408240e-19  1.7714807559010726e-19  1.8964478267349995e-19  2.0006496223955688e-19  2.0829417092980218e-19  2.1424198666085938e-19  2.1784299539733010e-19  2.1905750374180811e-19  2.1787196962926995e-19  2.1429914646413513e-19  2.0837793916009027e-19  2.0017297369951078e-19  1.8977388498645404e-19  1.7729433089178360e-19  1.6287074344963350e-19  1.4666083113056955e-19  1.2884184895681812e-19  1.0960865590222928e-19  8.9171581486458755e-20  6.7754125661920558e-20  4.5590517910307929e-20  2.2923162799361539e-20  0.0000000000000000e+00  0.0000000000000000e+00  2.1361235752621749e-20  4.2493898976290791e-20  6.3165938797367063e-20  8.3150340038639486e-20  1.0222763022584290e-19  1.2018829784504554e-19  1.3683509585697217e-19  1.5198520632672397e-19  1.6547224366405513e-19  1.7714807559010734e-19  1.8688444270199620e-19  1.9457435947293954e-19  2.0013328172119477e-19  2.0350002799067839e-19  2.0463744487830791e-19  2.0353280908046606e-19  2.0019796177518881e-19  1.9466917387069509e-19  1.8700674359984677e-19  1.7729433089178346e-19  1.6563803587708435e-19  1.5216523175531975e-19  1.3702316505071788e-19  1.2037733898122873e-19  1.0240969824363096e-19  8.3316635934585529e-20  6.3306845516262468e-20  4.2599042573179918e-20  2.1419582402402972e-20  0.0000000000000000e+00  0.0000000000000000e+00  1.9616626297322803e-20  3.9024494391861910e-20  5.8010334446135429e-20  7.6365499022846352e-20  9.3888273175164972e-20  1.1038609934146941e-19  1.2567769423231995e-19  1.3959503663977784e-19  1.5198520632672395e-19  1.6271205532408257e-19  1.7165769432865704e-19  1.7872377854157654e-19  1.8383257921536213e-19  1.8692782934748746e-19  1.8797533432137088e-19  1.8696334080467426e-19  1.8390265982686133e-19  1.7882654263523809e-19  1.7179031063750813e-19  1.6287074344963299e-19  1.5216523175531954e-19  1.3979070432788245e-19  1.2588234115309796e-19  1.1059208711631589e-19  9.4086983175768989e-20  7.6547334326860317e-20  5.8164735924554180e-20  3.9139981940259149e-20  1.9680880191186907e-20  0.0000000000000000e+00  0.0000000000000000e+00  1.7657652296985864e-20  3.5128609204375631e-20  5.2220686667988429e-20  6.8745868833657386e-20  8.4522396174035397e-20  9.9376771060460678e-20  1.1314566267351079e-19  1.2567769423231981e-19  1.3683509585697205e-19  1.4649520682022758e-19  1.5455181180071495e-19  1.6091629704340243e-19  1.6551861399006398e-19  1.6830803987364299e-19  1.6925372689989626e-19  1.6834503390800427e-19  1.6559163676252089e-19  1.6102341614456780e-19  1.5469012384908323e-19  1.4666083113056892e-19  1.3702316505071757e-19  1.2588234115309789e-19  1.1336000311882600e-19  9.9592882354137236e-20  8.4731292756429115e-20  6.8937478245681462e-20  5.2383833066485292e-20  3.5251017296402546e-20  1.7725992086538983e-20  0.0000000000000000e+00  0.0000000000000000e+00  1.5505916341657255e-20  3.0849190880619878e-20  4.5860788599402235e-20  6.0375359121049609e-20  7.4233078549264565e-20  8.7281409856840444e-20  9.9376771060460582e-20  1.1038609934146924e-19  1.2018829784504539e-19  1.2867555128672297e-19  1.3575449679869722e-19  1.4134723743419891e-19  1.4539218718646900e-19  1.4784473810503114e-19  1.4867774200068754e-19  1.4788180125511770e-19  1.4546536534612732e-19  1.4145463183197730e-19  1.3589325268043520e-19  1.2884184895681767e-19  1.2037733898122844e-19  1.1059208711631580e-19  9.9592882354137236e-20  8.7499757859123720e-20  7.4444664660118213e-20  6.0570014896925058e-20  4.6027112612589244e-20  3.0974493231679609e-20  1.5576196446646299e-20  0.0000000000000000e+00  0.0000000000000000e+00  1.3185171812911820e-20  2.6233456148962192e-20  3.9000762532680641e-20  5.1346189716745525e-20  6.3133594390415143e-20  7.4233078549264577e-20  8.4522396174035397e-20  9.3888273175164828e-20  1.0222763022584284e-19  1.0944869638470721e-19  1.1547200137706762e-19  1.2023123528941330e-19  1.2367396578446733e-19  1.2576220453280351e-19  1.2647281627014602e-19  1.2579776567083234e-19  1.2374419904524138e-19  1.2033435969895365e-19  1.1560533761344115e-19  1.0960865590222897e-19  1.0240969824363082e-19  9.4086983175768953e-20  8.4731292756429127e-20  7.4444664660118201e-20  6.3339258387302066e-20  5.1536108099274423e-20  3.9163777096644217e-20  2.6356932884132857e-20  1.3254868001696735e-20  0.0000000000000000e+00  0.0000000000000000e+00  1.0721085081352862e-20  2.1332406984657409e-20  3.1716324475363348e-20  4.1757906544928323e-20  5.1346189716745537e-20  6.0375359121049633e-20  6.8745868833657399e-20  7.6365499022846304e-20  8.3150340038639498e-20  8.9025691694626135e-20  9.3926866395394845e-20  9.7799885980550391e-20  1.0060206362409728e-19  1.0230246365671038e-19  1.0288223371468092e-19  1.0233480515103227e-19  1.0066595916737706e-19  9.7893757633190688e-20  9.4048339041123333e-20  8.9171581486458478e-20  8.3316635934585385e-20  7.6547334326860293e-20  6.89374782456