<?xml version="1.0"?>
<VTKFile type="UnstructuredGrid"  version="0.1"  >
<UnstructuredGrid>
<Piece  NumberOfPoints="961" NumberOfCells="1800">
<Points>
<DataArray  type="Float64"  NumberOfComponents="3"  format="ascii">-2 -2 0  -1.866666666666667 -2 0  -1.733333333333333 -2 0  -1.6 -2 0  -1.466666666666667 -2 0  -1.333333333333333 -2 0  -1.2 -2 0  -1.066666666666667 -2 0  -0.9333333333333333 -2 0  -0.8 -2 0  -0.6666666666666667 -2 0  -0.5333333333333334 -2 0  -0.3999999999999999 -2 0  -0.2666666666666666 -2 0  -0.1333333333333333 -2 0  0 -2 0  0.1333333333333333 -2 0  0.2666666666666666 -2 0  0.3999999999999999 -2 0  0.5333333333333332 -2 0  0.6666666666666665 -2 0  0.7999999999999998 -2 0  0.9333333333333331 -2 0  1.066666666666667 -2 0  1.2 -2 0  1.333333333333333 -2 0  1.466666666666667 -2 0  1.6 -2 0  1.733333333333333 -2 0  1.866666666666667 -2 0  2 -2 0  -2 -1.866666666666667 0  -1.866666666666667 -1.866666666666667 0  -1.733333333333333 -1.866666666666667 0  -1.6 -1.866666666666667 0  -1.466666666666667 -1.866666666666667 0  -1.333333333333333 -1.866666666666667 0  -1.2 -1.866666666666667 0  -1.066666666666667 -1.866666666666667 0  -0.9333333333333333 -1.866666666666667 0  -0.8 -1.866666666666667 0  -0.6666666666666667 -1.866666666666667 0  -0.5333333333333334 -1.866666666666667 0  -0.3999999999999999 -1.866666666666667 0  -0.2666666666666666 -1.866666666666667 0  -0.1333333333333333 -1.866666666666667 0  0 -1.866666666666667 0  0.1333333333333333 -1.866666666666667 0  0.2666666666666666 -1.866666666666667 0  0.3999999999999999 -1.866666666666667 0  0.5333333333333332 -1.866666666666667 0  0.6666666666666665 -1.866666666666667 0  0.7999999999999998 -1.866666666666667 0  0.9333333333333331 -1.866666666666667 0  1.066666666666667 -1.866666666666667 0  1.2 -1.866666666666667 0  1.333333333333333 -1.866666666666667 0  1.466666666666667 -1.866666666666667 0  1.6 -1.866666666666667 0  1.733333333333333 -1.866666666666667 0  1.866666666666667 -1.866666666666667 0  2 -1.866666666666667 0  -2 -1.733333333333333 0  -1.866666666666667 -1.733333333333333 0  -1.733333333333333 -1.733333333333333 0  -1.6 -1.733333333333333 0  -1.466666666666667 -1.733333333333333 0  -1.333333333333333 -1.733333333333333 0  -1.2 -1.733333333333333 0  -1.066666666666667 -1.733333333333333 0  -0.9333333333333333 -1.733333333333333 0  -0.8 -1.733333333333333 0  -0.6666666666666667 -1.733333333333333 0  -0.5333333333333334 -1.733333333333333 0  -0.3999999999999999 -1.733333333333333 0  -0.2666666666666666 -1.733333333333333 0  -0.1333333333333333 -1.733333333333333 0  0 -1.733333333333333 0  0.1333333333333333 -1.733333333333333 0  0.2666666666666666 -1.733333333333333 0  0.3999999999999999 -1.733333333333333 0  0.5333333333333332 -1.733333333333333 0  0.6666666666666665 -1.733333333333333 0  0.7999999999999998 -1.733333333333333 0  0.9333333333333331 -1.733333333333333 0  1.066666666666667 -1.733333333333333 0  1.2 -1.733333333333333 0  1.333333333333333 -1.733333333333333 0  1.466666666666667 -1.733333333333333 0  1.6 -1.733333333333333 0  1.733333333333333 -1.733333333333333 0  1.866666666666667 -1.733333333333333 0  2 -1.733333333333333 0  -2 -1.6 0  -1.866666666666667 -1.6 0  -1.733333333333333 -1.6 0  -1.6 -1.6 0  -1.466666666666667 -1.6 0  -1.333333333333333 -1.6 0  -1.2 -1.6 0  -1.066666666666667 -1.6 0  -0.9333333333333333 -1.6 0  -0.8 -1.6 0  -0.6666666666666667 -1.6 0  -0.5333333333333334 -1.6 0  -0.3999999999999999 -1.6 0  -0.2666666666666666 -1.6 0  -0.1333333333333333 -1.6 0  0 -1.6 0  0.1333333333333333 -1.6 0  0.2666666666666666 -1.6 0  0.3999999999999999 -1.6 0  0.5333333333333332 -1.6 0  0.6666666666666665 -1.6 0  0.7999999999999998 -1.6 0  0.9333333333333331 -1.6 0  1.066666666666667 -1.6 0  1.2 -1.6 0  1.333333333333333 -1.6 0  1.466666666666667 -1.6 0  1.6 -1.6 0  1.733333333333333 -1.6 0  1.866666666666667 -1.6 0  2 -1.6 0  -2 -1.466666666666667 0  -1.866666666666667 -1.466666666666667 0  -1.733333333333333 -1.466666666666667 0  -1.6 -1.466666666666667 0  -1.466666666666667 -1.466666666666667 0  -1.333333333333333 -1.466666666666667 0  -1.2 -1.466666666666667 0  -1.066666666666667 -1.466666666666667 0  -0.9333333333333333 -1.466666666666667 0  -0.8 -1.466666666666667 0  -0.6666666666666667 -1.466666666666667 0  -0.5333333333333334 -1.466666666666667 0  -0.3999999999999999 -1.466666666666667 0  -0.2666666666666666 -1.466666666666667 0  -0.1333333333333333 -1.466666666666667 0  0 -1.466666666666667 0  0.1333333333333333 -1.466666666666667 0  0.2666666666666666 -1.466666666666667 0  0.3999999999999999 -1.466666666666667 0  0.5333333333333332 -1.466666666666667 0  0.6666666666666665 -1.466666666666667 0  0.7999999999999998 -1.466666666666667 0  0.9333333333333331 -1.466666666666667 0  1.066666666666667 -1.466666666666667 0  1.2 -1.466666666666667 0  1.333333333333333 -1.466666666666667 0  1.466666666666667 -1.466666666666667 0  1.6 -1.466666666666667 0  1.733333333333333 -1.466666666666667 0  1.866666666666667 -1.466666666666667 0  2 -1.466666666666667 0  -2 -1.333333333333333 0  -1.866666666666667 -1.333333333333333 0  -1.733333333333333 -1.333333333333333 0  -1.6 -1.333333333333333 0  -1.466666666666667 -1.333333333333333 0  -1.333333333333333 -1.333333333333333 0  -1.2 -1.333333333333333 0  -1.066666666666667 -1.333333333333333 0  -0.9333333333333333 -1.333333333333333 0  -0.8 -1.333333333333333 0  -0.6666666666666667 -1.333333333333333 0  -0.5333333333333334 -1.333333333333333 0  -0.3999999999999999 -1.333333333333333 0  -0.2666666666666666 -1.333333333333333 0  -0.1333333333333333 -1.333333333333333 0  0 -1.333333333333333 0  0.1333333333333333 -1.333333333333333 0  0.2666666666666666 -1.333333333333333 0  0.3999999999999999 -1.333333333333333 0  0.5333333333333332 -1.333333333333333 0  0.6666666666666665 -1.333333333333333 0  0.7999999999999998 -1.333333333333333 0  0.9333333333333331 -1.333333333333333 0  1.066666666666667 -1.333333333333333 0  1.2 -1.333333333333333 0  1.333333333333333 -1.333333333333333 0  1.466666666666667 -1.333333333333333 0  1.6 -1.333333333333333 0  1.733333333333333 -1.333333333333333 0  1.866666666666667 -1.333333333333333 0  2 -1.333333333333333 0  -2 -1.2 0  -1.866666666666667 -1.2 0  -1.733333333333333 -1.2 0  -1.6 -1.2 0  -1.466666666666667 -1.2 0  -1.333333333333333 -1.2 0  -1.2 -1.2 0  -1.066666666666667 -1.2 0  -0.9333333333333333 -1.2 0  -0.8 -1.2 0  -0.6666666666666667 -1.2 0  -0.5333333333333334 -1.2 0  -0.3999999999999999 -1.2 0  -0.2666666666666666 -1.2 0  -0.1333333333333333 -1.2 0  0 -1.2 0  0.1333333333333333 -1.2 0  0.2666666666666666 -1.2 0  0.3999999999999999 -1.2 0  0.5333333333333332 -1.2 0  0.6666666666666665 -1.2 0  0.7999999999999998 -1.2 0  0.9333333333333331 -1.2 0  1.066666666666667 -1.2 0  1.2 -1.2 0  1.333333333333333 -1.2 0  1.466666666666667 -1.2 0  1.6 -1.2 0  1.733333333333333 -1.2 0  1.866666666666667 -1.2 0  2 -1.2 0  -2 -1.066666666666667 0  -1.866666666666667 -1.066666666666667 0  -1.733333333333333 -1.066666666666667 0  -1.6 -1.066666666666667 0  -1.466666666666667 -1.066666666666667 0  -1.333333333333333 -1.066666666666667 0  -1.2 -1.066666666666667 0  -1.066666666666667 -1.066666666666667 0  -0.9333333333333333 -1.066666666666667 0  -0.8 -1.066666666666667 0  -0.6666666666666667 -1.066666666666667 0  -0.5333333333333334 -1.066666666666667 0  -0.3999999999999999 -1.066666666666667 0  -0.2666666666666666 -1.066666666666667 0  -0.1333333333333333 -1.066666666666667 0  0 -1.066666666666667 0  0.1333333333333333 -1.066666666666667 0  0.2666666666666666 -1.066666666666667 0  0.3999999999999999 -1.066666666666667 0  0.5333333333333332 -1.066666666666667 0  0.6666666666666665 -1.066666666666667 0  0.7999999999999998 -1.066666666666667 0  0.9333333333333331 -1.066666666666667 0  1.066666666666667 -1.066666666666667 0  1.2 -1.066666666666667 0  1.333333333333333 -1.066666666666667 0  1.466666666666667 -1.066666666666667 0  1.6 -1.066666666666667 0  1.733333333333333 -1.066666666666667 0  1.866666666666667 -1.066666666666667 0  2 -1.066666666666667 0  -2 -0.9333333333333333 0  -1.866666666666667 -0.9333333333333333 0  -1.733333333333333 -0.9333333333333333 0  -1.6 -0.9333333333333333 0  -1.466666666666667 -0.9333333333333333 0  -1.333333333333333 -0.9333333333333333 0  -1.2 -0.9333333333333333 0  -1.066666666666667 -0.9333333333333333 0  -0.9333333333333333 -0.9333333333333333 0  -0.8 -0.9333333333333333 0  -0.6666666666666667 -0.9333333333333333 0  -0.5333333333333334 -0.9333333333333333 0  -0.3999999999999999 -0.9333333333333333 0  -0.2666666666666666 -0.9333333333333333 0  -0.1333333333333333 -0.9333333333333333 0  0 -0.9333333333333333 0  0.1333333333333333 -0.9333333333333333 0  0.2666666666666666 -0.9333333333333333 0  0.3999999999999999 -0.9333333333333333 0  0.5333333333333332 -0.9333333333333333 0  0.6666666666666665 -0.9333333333333333 0  0.7999999999999998 -0.9333333333333333 0  0.9333333333333331 -0.9333333333333333 0  1.066666666666667 -0.9333333333333333 0  1.2 -0.9333333333333333 0  1.333333333333333 -0.9333333333333333 0  1.466666666666667 -0.9333333333333333 0  1.6 -0.9333333333333333 0  1.733333333333333 -0.9333333333333333 0  1.866666666666667 -0.9333333333333333 0  2 -0.9333333333333333 0  -2 -0.8 0  -1.866666666666667 -0.8 0  -1.733333333333333 -0.8 0  -1.6 -0.8 0  -1.466666666666667 -0.8 0  -1.333333333333333 -0.8 0  -1.2 -0.8 0  -1.066666666666667 -0.8 0  -0.9333333333333333 -0.8 0  -0.8 -0.8 0  -0.6666666666666667 -0.8 0  -0.5333333333333334 -0.8 0  -0.3999999999999999 -0.8 0  -0.2666666666666666 -0.8 0  -0.1333333333333333 -0.8 0  0 -0.8 0  0.1333333333333333 -0.8 0  0.2666666666666666 -0.8 0  0.3999999999999999 -0.8 0  0.5333333333333332 -0.8 0  0.6666666666666665 -0.8 0  0.7999999999999998 -0.8 0  0.9333333333333331 -0.8 0  1.066666666666667 -0.8 0  1.2 -0.8 0  1.333333333333333 -0.8 0  1.466666666666667 -0.8 0  1.6 -0.8 0  1.733333333333333 -0.8 0  1.866666666666667 -0.8 0  2 -0.8 0  -2 -0.6666666666666667 0  -1.866666666666667 -0.
[...]
<PointData  Scalars="f_10422"> 
<DataArray  type="Float64"  Name="f_10422"  format="ascii">0.0000000000000000e+00  0.0000000000000000e+00  0.0000000000000000e+00  0.0000000000000000e+00  0.0000000000000000e+00  0.0000000000000000e+00  0.0000000000000000e+00  0.0000000000000000e+00  0.0000000000000000e+00  0.0000000000000000e+00  0.0000000000000000e+00  0.0000000000000000e+00  0.0000000000000000e+00  0.0000000000000000e+00  0.0000000000000000e+00  0.0000000000000000e+00  0.0000000000000000e+00  0.0000000000000000e+00  0.0000000000000000e+00  0.0000000000000000e+00  0.0000000000000000e+00  0.0000000000000000e+00  0.0000000000000000e+00  0.0000000000000000e+00  0.0000000000000000e+00  0.0000000000000000e+00  0.0000000000000000e+00  0.0000000000000000e+00  0.0000000000000000e+00  0.0000000000000000e+00  0.0000000000000000e+00  0.0000000000000000e+00  3.7119172204444868e-21  7.3764702397840917e-21  1.0956223735455156e-20  1.4413255432733641e-20  1.7710417357185108e-20  2.0812047307622923e-20  2.3684484664998516e-20  2.6296497414991861e-20  2.8619654598945364e-20  3.0628655092711864e-20  3.2301615508521574e-20  3.3620317064339061e-20  3.4570410242093212e-20  3.5141575828974408e-20  3.5327641070566154e-20  3.5126649979200607e-20  3.4540887253120363e-20  3.3576855731971911e-20  3.2245207822923838e-20  3.0560631873622742e-20  2.8541695050884710e-20  2.6210644935962367e-20  2.3593172839416359e-20  2.0718142940480122e-20  1.7617293186395469e-20  1.4324917553939117e-20  1.0877547949849141e-20  7.3136776044905933e-21  3.6736398729186559e-21  0.0000000000000000e+00  0.0000000000000000e+00  7.3764702397840917e-21  1.4662949634890615e-20  2.1782313480231740e-20  2.8658285445679932e-20  3.5216667685680140e-20  4.1386394982592778e-20  4.7100448567629891e-20  5.2296666811464479e-20  5.6918471228150765e-20  6.0915514180783830e-20  6.4244248678223535e-20  6.6868418032842877e-20  6.8759462253477482e-20  6.9896838030851794e-20  7.0268249619864312e-20  6.9869788627521187e-20  6.8705981570232204e-20  6.6789745012554314e-20  6.4142249111413494e-20  6.0792691454100760e-20  5.6777984202320141e-20  5.2142358772983432e-20  4.6936893683687557e-20  4.1218972950716174e-20  3.5051684940209470e-20  2.8503175654654102e-20  2.1645977707763560e-20  1.4556349349669731e-20  7.3136776044905948e-21  0.0000000000000000e+00  0.0000000000000000e+00  1.0956223735455156e-20  2.1782313480231746e-20  3.2361926872028507e-20  4.2580869747994586e-20  5.2328460575884167e-20  6.1498867737556252e-20  6.9992364032430149e-20  7.7716484884077797e-20  8.4587085704386319e-20  9.0529294066917422e-20  9.5478351277145533e-20  9.9380337357894648e-20  1.0219277356517968e-19  1.0388509715834986e-19  1.0443900410485424e-19  1.0384865658533724e-19  1.0212075350066753e-19  9.9274463618313385e-20  9.5341222499644577e-20  9.0364395905604777e-20  8.4398813984159338e-20  7.7510182216785781e-20  6.9774376889342557e-20  6.1276634842465921e-20  5.2110649582766788e-20  4.2377588628018818e-20  3.2185050035633006e-20  2.1645977707763569e-20  1.0877547949849148e-20  0.0000000000000000e+00  0.0000000000000000e+00  1.4413255432733635e-20  2.8658285445679926e-20  4.2580869747994580e-20  5.6030029269247069e-20  6.8859681083683405e-20  8.0930284859731904e-20  9.2110423968507267e-20  1.0227829038622921e-19  1.1132305467012326e-19  1.1914610725080508e-19  1.2566215943871576e-19  1.3080019387028281e-19  1.3450425536394570e-19  1.3673407454219875e-19  1.3746551813969221e-19  1.3669086163639516e-19  1.3441888169303432e-19  1.3067476778938504e-19  1.2549985444608538e-19  1.1895117742568967e-19  1.1110085934372679e-19  1.0203533216711046e-19  9.1854406129924053e-20  8.0670196639216136e-20  6.8605922704652366e-20  5.5794592053149771e-20  4.2377588628018830e-20  2.8503175654654120e-20  1.4324917553939126e-20  0.0000000000000000e+00  0.0000000000000000e+00  1.7710417357185090e-20  3.5216667685680128e-20  5.2328460575884119e-20  6.8859681083683381e-20  8.4630393979789970e-20  9.9468820132920911e-20  1.1321324042895792e-19  1.2571379358195166e-19  1.3683414252679966e-19  1.4645298932739865e-19  1.5446542188049350e-19  1.6078407815191424e-19  1.6534011582320428e-19  1.6808397732415214e-19  1.6898594238706594e-19  1.6803646250951150e-19  1.6524627404669564e-19  1.6064628905190660e-19  1.5428726541792384e-19  1.4623926031740813e-19  1.3659087336848024e-19  1.2544828833185938e-19  1.1293412443487969e-19  9.9186110540512219e-20  8.4355597186661673e-20  6.8605922704652391e-20  5.2110649582766830e-20  3.5051684940209506e-20  1.7617293186395478e-20  0.0000000000000000e+00  0.0000000000000000e+00  2.0812047307622884e-20  4.1386394982592699e-20  6.1498867737556179e-20  8.0930284859731783e-20  9.9468820132920827e-20  1.1691230951069048e-19  1.3307046981312971e-19  1.4776699541492248e-19  1.6084150467828115e-19  1.7215131209187105e-19  1.8157300553184299e-19  1.8900381101725059e-19  1.9436273005250265e-19  1.9759143730629281e-19  1.9865492905844196e-19  1.9754191558668599e-19  1.9426495346590717e-19  1.8886031659646590e-19  1.8138760764059061e-19  1.7192911439495546e-19  1.6058891842702337e-19  1.4749176600769452e-19  1.3278171392313458e-19  1.1662056505506592e-19  9.9186110540512231e-20  8.0670196639216160e-20  6.1276634842465933e-20  4.1218972950716198e-20  2.0718142940480131e-20  0.0000000000000000e+00  0.0000000000000000e+00  2.3684484664998471e-20  4.7100448567629783e-20  6.9992364032430053e-20  9.2110423968507135e-20  1.1321324042895783e-19  1.3307046981312966e-19  1.5146533081953089e-19  1.6819698237926865e-19  1.8308273159265142e-19  1.9596004493907690e-19  2.0668833926156262e-19  2.1515053215429631e-19  2.2125433444891660e-19  2.2493327056433875e-19  2.2614741559648059e-19  2.2488384119331976e-19  2.2115676548205692e-19  2.1500740556953318e-19  2.0650353439577165e-19  1.9573874694801007e-19  1.8283144399681723e-19  1.6792354454666587e-19  1.5117894103861777e-19  1.3278171392313451e-19  1.1293412443487964e-19  9.1854406129923993e-20  6.9774376889342497e-20  4.6936893683687527e-20  2.3593172839416356e-20  0.0000000000000000e+00  0.0000000000000000e+00  2.6296497414991837e-20  5.2296666811464443e-20  7.7716484884077761e-20  1.0227829038622912e-19  1.2571379358195159e-19  1.4776699541492243e-19  1.6819698237926865e-19  1.8678056363780741e-19  2.0331471888626358e-19  2.1761882814666901e-19  2.2953665769597181e-19  2.3893807951969954e-19  2.4572050496566569e-19  2.4981001664600274e-19  2.5116218609357245e-19  2.4976256821213998e-19  2.4562686715062762e-19  2.3880077185372747e-19  2.2935946316051369e-19  2.1740679789991325e-19  2.0307417892201009e-19  1.8651912335645728e-19  1.6792354454666599e-19  1.4749176600769449e-19  1.2544828833185938e-19  1.0203533216711043e-19  7.7510182216785757e-20  5.2142358772983414e-20  2.6210644935962358e-20  0.0000000000000000e+00  0.0000000000000000e+00  2.8619654598945328e-20  5.6918471228150717e-20  8.4587085704386235e-20  1.1132305467012319e-19  1.3683414252679961e-19  1.6084150467828108e-19  1.8308273159265135e-19  2.0331471888626358e-19  2.2131633036496830e-19  2.3689082341328663e-19  2.4986800904674737e-19  2.6010612217240696e-19  2.6749338104630956e-19  2.7194921852363377e-19  2.7342517143428992e-19  2.7190541825482043e-19  2.6740695915581853e-19  2.5997943644792387e-19  2.4970459738970097e-19  2.3669540521424921e-19  2.2109480803167021e-19  2.0307417892201048e-19  1.8283144399681766e-19  1.6058891842702363e-19  1.3659087336848048e-19  1.1110085934372694e-19  8.4398813984159483e-20  5.6777984202320237e-20  2.8541695050884758e-20  0.0000000000000000e+00  0.0000000000000000e+00  3.0628655092711816e-20  6.0915514180783734e-20  9.0529294066917277e-20  1.1914610725080491e-19  1.4645298932739843e-19  1.7215131209187100e-19  1.9596004493907685e-19  2.1761882814666905e-19  2.3689082341328663e-19  2.5356530945267200e-19  2.6745999336948335e-19  2.7842301183858885e-19  2.8633459968688930e-19  2.9110840727138269e-19  2.9269245201038301e-19  2.9106969351427930e-19  2.8625822593711430e-19  2.7831108538866246e-19  2.6731567446454290e-19  2.5339281012307574e-19  2.3669540521424969e-19  2.1740679789991412e-19  1.9573874694801091e-19  1.7192911439495601e-19  1.4623926031740849e-19  1.1895117742568998e-19  9.0364395905605018e-20  6.0792691454100952e-20  3.0560631873622844e-20  0.0000000000000000e+00  0.0000000000000000e+00  3.2301615508521514e-20  6.4244248678223415e-20  9.5478351277145365e-20  1.2566215943871555e-19  1.5446542188049331e-19  1.8157300553184282e-19  2.0668833926156257e-19  2.2953665769597186e-19  2.4986800904674737e-19  2.6745999336948335e-19  2.8212020065949768e-19  2.9368832157108878e-19  3.0203790724252294e-19  3.0707775865691332e-19  3.0875293011387696e-19  3.0704533567884663e-19  3.0197395186877357e-19  2.9359461427745090e-19  2.8199941029291187e-19  2.6731567446454334e-19  2.4970459738970193e-19  2.2935946316051489e-19  2.0650353439577295e-19  1.8138760764059142e-19  1.5428726541792437e-19  1.2549985444608584e-19  9.5341222499644914e-20  6.4142249111413771e-20  3.2245207822923983e-20  0.0000000000000000e+00  0.0000000000000000e+00  3.3620317064338976e-20  6.6868418032842672e-20  9.9380337357894371e-20  1.3080019387028243e-19  1.6078407815191375e-19  1.8900381101725023e-19  2.1515053215429609e-19  2.3893807951969939e-19  2.6010612217240687e-19  2.7842301183858870e-19  2.9368832157108863e-19  3.0573504333360844e-19  3.1443142013821292e-19  3.1968239243421404e-19  3.2143064273140597e-19  3.1965722688843400e-19  3.1438178505684019e-19  3.0566232989243401e-19  2.9359461427745075e-19  2.7831108538866289e-19  2.5997943644792474e-19  2.3880077185372873e-19  2.1500740556953446e-19  1.8886031659646675e-19  1.6064628905190715e-19  1.3067476778938554e-19  9.9274463618313758e-20  6.6789745012554591e-20  3.3576855731972074e-20  0.0000000000000000e+00  0.0000000000000000e+00  3.4570410242093115e-20  6.8759462253477277e-20  1.0219277356517933e-19  1.3450425536394527e-19  1.6534011582320370e-19  1.9436273005250217e-19  2.2125433444891645e-19  2.4572050496566569e-19  2.6749338104630956e-19  2.8633459968688911e-19  3.0203790724252274e-19  3.1443142013821292e-19  3.2337950952133965e-19  3.2878428905082695e-19  3.3058668940163804e-19  3.2876710762037231e-19  3.2334562414599126e-19  3.1438178505683990e-19  3.0197395186877323e-19  2.8625822593711454e-19  2.6740695915581920e-19  2.4562686715062873e-19  2.2115676548205788e-19  1.9426495346590789e-19  1.6524627404669624e-19  1.3441888169303487e-19  1.0212075350066794e-19  6.8705981570232505e-20  3.4540887253120501e-20  0.0000000000000000e+00  0.0000000000000000e+00  3.5141575828974312e-20  6.9896838030851553e-20  1.0388509715834946e-19  1.3673407454219831e-19  1.6808397732415169e-19  1.9759143730629247e-19  2.2493327056433846e-19  2.4981001664600264e-19  2.7194921852363387e-19  2.9110840727138240e-19  3.0707775865691303e-19  3.1968239243421385e-19  3.2878428905082685e-19  3.3428380269087511e-19  3.3612075401432895e-19  3.3427509057176517e-19  3.2876710762037198e-19  3.1965722688843357e-19  3.0704533567884620e-19  2.9106969351427949e-19  2.7190541825482106e-19  2.4976256821214094e-19  2.2488384119332067e-19  1.9754191558668668e-19  1.6803646250951200e-19  1.3669086163639562e-19  1.0384865658533762e-19  6.9869788627521428e-20  3.5126649979200746e-20  0.0000000000000000e+00  0.0000000000000000e+00  3.5327641070566039e-20  7.0268249619864059e-20  1.0443900410485388e-19  1.3746551813969173e-19  1.6898594238706539e-19  1.9865492905844163e-19  2.2614741559648020e-19  2.5116218609357206e-19  2.7342517143428963e-19  2.9269245201038258e-19  3.0875293011387633e-19  3.2143064273140539e-19  3.3058668940163766e-19  3.3612075401432866e-19  3.3797220387796886e-19  3.3612075401432866e-19  3.3058668940163766e-19  3.2143064273140535e-19  3.0875293011387662e-19  2.9269245201038325e-19  2.7342517143429040e-19  2.5116218609357336e-19  2.2614741559648146e-19  1.9865492905844261e-19  1.6898594238706645e-19  1.3746551813969262e-19  1.0443900410485457e-19  7.0268249619864529e-20  3.5327641070566286e-20  0.0000000000000000e+00  0.0000000000000000e+00  3.5126649979200505e-20  6.9869788627520971e-20  1.0384865658533696e-19  1.3669086163639475e-19  1.6803646250951099e-19  1.9754191558668558e-19  2.2488384119331923e-19  2.4976256821213940e-19  2.7190541825481976e-19  2.9106969351427863e-19  3.0704533567884581e-19  3.1965722688843333e-19  3.2876710762037159e-19  3.3427509057176449e-19  3.3612075401432847e-19  3.3428380269087468e-19  3.2878428905082647e-19  3.1968239243421370e-19  3.0707775865691313e-19  2.9110840727138274e-19  2.7194921852363435e-19  2.4981001664600370e-19  2.2493327056433966e-19  1.9759143730629346e-19  1.6808397732415265e-19  1.3673407454219916e-19  1.0388509715835018e-19  6.9896838030852011e-20  3.5141575828974553e-20  0.0000000000000000e+00  0.0000000000000000e+00  3.4540887253120242e-20  6.8705981570232024e-20  1.0212075350066724e-19  1.3441888169303401e-19  1.6524627404669518e-19  1.9426495346590661e-19  2.2115676548205629e-19  2.4562686715062709e-19  2.6740695915581776e-19  2.8625822593711329e-19  3.0197395186877246e-19  3.1438178505683942e-19  3.2334562414599044e-19  3.2876710762037125e-19  3.3058668940163732e-19  3.2878428905082637e-19  3.2337950952133922e-19  3.1443142013821254e-19  3.0203790724252260e-19  2.8633459968688940e-19  2.6749338104631014e-19  2.4572050496566656e-19  2.2125433444891742e-19  1.9436273005250323e-19  1.6534011582320474e-19  1.3450425536394613e-19  1.0219277356517999e-19  6.8759462253477698e-20  3.4570410242093326e-20  0.0000000000000000e+00  0.0000000000000000e+00  3.3576855731971809e-20  6.6789745012554086e-20  9.9274463618313072e-20  1.3067476778938470e-19  1.6064628905190614e-19  1.8886031659646552e-19  2.1500740556953275e-19  2.3880077185372690e-19  2.5997943644792310e-19  2.7831108538866150e-19  2.9359461427744974e-19  3.0566232989243310e-19  3.1438178505683909e-19  3.1965722688843280e-19  3.2143064273140477e-19  3.1968239243421327e-19  3.1443142013821239e-19  3.0573504333360810e-19  2.9368832157108844e-19  2.7842301183858899e-19  2.6010612217240744e-19  2.3893807951970041e-19  2.1515053215429717e-19  1.8900381101725117e-19  1.6078407815191464e-19  1.3080019387028315e-19  9.9380337357894924e-20  6.6868418032843033e-20  3.3620317064339163e-20  0.0000000000000000e+00  0.0000000000000000e+00  3.2245207822923742e-20  6.4142249111413302e-20  9.5341222499644300e-20  1.2549985444608509e-19  1.5428726541792351e-19  1.8138760764059027e-19  2.0650353439577144e-19  2.2935946316051301e-19  2.4970459738970020e-19  2.6731567446454199e-19  2.8199941029291062e-19  2.9359461427744974e-19  3.0197395186877222e-19  3.0704533567884538e-19  3.0875293011387575e-19  3.0707775865691245e-19  3.0203790724252231e-19  2.9368832157108820e-19  2.8212020065949744e-19  2.6745999336948350e-19  2.4986800904674795e-19  2.2953665769597282e-19  2.0668833926156358e-19  1.8157300553184367e-19  1.5446542188049408e-19  1.2566215943871617e-19  9.5478351277145822e-20  6.4244248678223703e-20  3.2301615508521682e-20  0.0000000000000000e+00  0.0000000000000000e+00  3.0560631873622634e-20  6.0792691454100579e-20  9.0364395905604512e-20  1.1895117742568933e-19  1.4623926031740777e-19  1.7192911439495510e-19  1.9573874694800963e-19  2.1740679789991258e-19  2.3669540521424825e-19  2.5339281012307473e-19  2.6731567446454223e-19  2.7831108538866174e-19  2.8625822593711329e-19  2.9106969351427838e-19  2.9269245201038224e-19  2.9110840727138192e-19  2.8633459968688872e-19  2.7842301183858842e-19  2.6745999336948321e-19  2.5356530945267229e-19  2.3689082341328730e-19  2.1761882814667021e-19  1.9596004493907796e-19  1.7215131209187180e-19  1.4645298932739920e-19  1.1914610725080554e-19  9.0529294066917783e-20  6.0915514180784071e-20  3.0628655092711991e-20  0.0000000000000000e+00  0.0000000000000000e+00  2.8541695050884596e-20  5.6777984202319948e-20  8.4398813984159086e-20  1.1110085934372641e-19  1.3659087336847983e-19  1.6058891842702289e-19  1.8283144399681685e-19  2.0307417892200951e-19  2.2109480803166915e-19  2.3669540521424839e-19  2.4970459738970068e-19  2.5997943644792349e-19  2.6740695915581785e-19  2.7190541825481990e-19  2.7342517143428934e-19  2.7194921852363324e-19  2.6749338104630927e-19  2.6010612217240663e-19  2.4986800904674727e-19  2.3689082341328706e-19  2.2131633036496912e-19  2.0331471888626474e-19  1.8308273159265243e-19  1.6084150467828192e-19  1.3683414252680029e-19  1.1132305467012379e-19  8.4587085704386680e-20  5.6918471228151029e-20  2.8619654598945490e-20  0.0000000000000000e+00  0.0000000000000000e+00  2.6210644935962247e-20  5.2142358772983191e-20  7.7510182216785456e-20  1.0203533216711003e-19  1.2544828833185893e-19  1.4749176600769392e-19  1.6792354454666517e-19  1.8651912335645639e-19  2.0307417892200937e-19  2.1740679789991277e-19  2.2935946316051350e-19  2.3880077185372738e-19  2.4562686715062729e-19  2.4976256821213964e-19  2.5116218609357206e-19  2.4981001664600249e-19  2.4572050496566545e-19  2.3893807951969930e-19  2.2953665769597191e-19  2.1761882814666958e-19  2.0331471888626445e-19  1.8678056363780847e-19  1.6819698237926959e-19  1.4776699541492322e-19  1.2571379358195228e-19  1.0227829038622970e-19  7.7716484884078170e-20  5.2296666811464732e-20  2.6296497414991987e-20  0.0000000000000000e+00  0.0000000000000000e+00  2.3593172839416242e-20  4.6936893683687316e-20  6.9774376889342208e-20  9.1854406129923596e-20  1.1293412443487916e-19  1.3278171392313396e-19  1.5117894103861703e-19  1.6792354454666503e-19  1.8283144399681663e-19  1.9573874694800971e-19  2.0650353439577172e-19  2.1500740556953314e-19  2.2115676548205649e-19  2.2488384119331933e-19  2.2614741559648020e-19  2.2493327056433836e-19  2.2125433444891626e-19  2.1515053215429599e-19  2.0668833926156254e-19  1.9596004493907724e-19  1.8308273159265202e-19  1.6819698237926949e-19  1.5146533081953161e-19  1.3307046981313021e-19  1.1321324042895836e-19  9.2110423968507616e-20  6.9992364032430414e-20  4.7100448567630024e-20  2.3684484664998594e-20  0.0000000000000000e+00  0.0000000000000000e+00  2.0718142940480017e-20  4.1218972950715975e-20  6.1276634842465608e-20  8.0670196639215750e-20  9.9186110540511750e-20  1.1662056505506541e-19  1.3278171392313386e-19  1.4749176600769370e-19  1.6058891842702272e-19  1.7192911439495508e-19  1.8138760764059044e-19  1.8886031659646573e-19  1.9426495346590685e-19  1.9754191558668565e-19  1.9865492905844163e-19  1.9759143730629247e-19  1.9436273005250229e-19  1.8900381101725023e-19  1.8157300553184278e-19  1.7215131209187122e-19  1.6084150467828156e-19  1.4776699541492310e-19  1.3307046981313029e-19  1.1691230951069098e-19  9.9468820132921260e-20  8.0930284859732169e-20  6.1498867737556492e-20  4.1386394982592916e-20  2.0812047307622986e-20  0.0000000000000000e+00  0.0000000000000000e+00  1.7617293186395376e-20  3.5051684940209307e-20  5.2110649582766541e-20  6.8605922704652041e-20  8.4355597186661276e-20  9.9186110540511726e-20  1.1293412443487909e-19  1.2544828833185881e-19  1.3659087336847973e-19  1.4623926031740780e-19  1.5428726541792363e-19  1.6064628905190641e-19  1.6524627404669557e-19  1.6803646250951125e-19  1.6898594238706568e-19  1.6808397732415188e-19  1.6534011582320392e-19  1.6078407815191390e-19  1.5446542188049341e-19  1.4645298932739874e-19  1.3683414252680012e-19  1.2571379358195221e-19  1.1321324042895843e-19  9.9468820132921284e-20  8.4630393979790295e-20  6.8859681083683670e-20  5.2328460575884366e-20  3.5216667685680290e-20  1.7710417357185171e-20  0.0000000000000000e+00  0.0000000000000000e+00  1.4324917553939048e-20  2.8503175654653976e-20  4.2377588628018619e-20  5.5794592053149518e-20  6.8605922704652090e-20  8.0670196639215798e-20  9.1854406129923572e-20  1.0203533216710996e-19  1.1110085934372641e-19  1.1895117742568945e-19  1.2549985444608524e-19  1.3067476778938491e-19  1.3441888169303418e-19  1.3669086163639499e-19  1.3746551813969200e-19  1.3673407454219853e-19  1.3450425536394553e-19  1.3080019387028260e-19  1.2566215943871569e-19  1.1914610725080518e-19  1.1132305467012367e-19  1.0227829038622966e-19  9.21104239685