<?xml version="1.0"?>
<VTKFile type="UnstructuredGrid"  version="0.1"  >
<UnstructuredGrid>
<Piece  NumberOfPoints="961" NumberOfCells="1800">
<Points>
<DataArray  type="Float64"  NumberOfComponents="3"  format="ascii">-2 -2 0  -1.866666666666667 -2 0  -1.733333333333333 -2 0  -1.6 -2 0  -1.466666666666667 -2 0  -1.333333333333333 -2 0  -1.2 -2 0  -1.066666666666667 -2 0  -0.9333333333333333 -2 0  -0.8 -2 0  -0.6666666666666667 -2 0  -0.5333333333333334 -2 0  -0.3999999999999999 -2 0  -0.2666666666666666 -2 0  -0.1333333333333333 -2 0  0 -2 0  0.1333333333333333 -2 0  0.2666666666666666 -2 0  0.3999999999999999 -2 0  0.5333333333333332 -2 0  0.6666666666666665 -2 0  0.7999999999999998 -2 0  0.9333333333333331 -2 0  1.066666666666667 -2 0  1.2 -2 0  1.333333333333333 -2 0  1.466666666666667 -2 0  1.6 -2 0  1.733333333333333 -2 0  1.866666666666667 -2 0  2 -2 0  -2 -1.866666666666667 0  -1.866666666666667 -1.866666666666667 0  -1.733333333333333 -1.866666666666667 0  -1.6 -1.866666666666667 0  -1.466666666666667 -1.866666666666667 0  -1.333333333333333 -1.866666666666667 0  -1.2 -1.866666666666667 0  -1.066666666666667 -1.866666666666667 0  -0.9333333333333333 -1.866666666666667 0  -0.8 -1.866666666666667 0  -0.6666666666666667 -1.866666666666667 0  -0.5333333333333334 -1.866666666666667 0  -0.3999999999999999 -1.866666666666667 0  -0.2666666666666666 -1.866666666666667 0  -0.1333333333333333 -1.866666666666667 0  0 -1.866666666666667 0  0.1333333333333333 -1.866666666666667 0  0.2666666666666666 -1.866666666666667 0  0.3999999999999999 -1.866666666666667 0  0.5333333333333332 -1.866666666666667 0  0.6666666666666665 -1.866666666666667 0  0.7999999999999998 -1.866666666666667 0  0.9333333333333331 -1.866666666666667 0  1.066666666666667 -1.866666666666667 0  1.2 -1.866666666666667 0  1.333333333333333 -1.866666666666667 0  1.466666666666667 -1.866666666666667 0  1.6 -1.866666666666667 0  1.733333333333333 -1.866666666666667 0  1.866666666666667 -1.866666666666667 0  2 -1.866666666666667 0  -2 -1.733333333333333 0  -1.866666666666667 -1.733333333333333 0  -1.733333333333333 -1.733333333333333 0  -1.6 -1.733333333333333 0  -1.466666666666667 -1.733333333333333 0  -1.333333333333333 -1.733333333333333 0  -1.2 -1.733333333333333 0  -1.066666666666667 -1.733333333333333 0  -0.9333333333333333 -1.733333333333333 0  -0.8 -1.733333333333333 0  -0.6666666666666667 -1.733333333333333 0  -0.5333333333333334 -1.733333333333333 0  -0.3999999999999999 -1.733333333333333 0  -0.2666666666666666 -1.733333333333333 0  -0.1333333333333333 -1.733333333333333 0  0 -1.733333333333333 0  0.1333333333333333 -1.733333333333333 0  0.2666666666666666 -1.733333333333333 0  0.3999999999999999 -1.733333333333333 0  0.5333333333333332 -1.733333333333333 0  0.6666666666666665 -1.733333333333333 0  0.7999999999999998 -1.733333333333333 0  0.9333333333333331 -1.733333333333333 0  1.066666666666667 -1.733333333333333 0  1.2 -1.733333333333333 0  1.333333333333333 -1.733333333333333 0  1.466666666666667 -1.733333333333333 0  1.6 -1.733333333333333 0  1.733333333333333 -1.733333333333333 0  1.866666666666667 -1.733333333333333 0  2 -1.733333333333333 0  -2 -1.6 0  -1.866666666666667 -1.6 0  -1.733333333333333 -1.6 0  -1.6 -1.6 0  -1.466666666666667 -1.6 0  -1.333333333333333 -1.6 0  -1.2 -1.6 0  -1.066666666666667 -1.6 0  -0.9333333333333333 -1.6 0  -0.8 -1.6 0  -0.6666666666666667 -1.6 0  -0.5333333333333334 -1.6 0  -0.3999999999999999 -1.6 0  -0.2666666666666666 -1.6 0  -0.1333333333333333 -1.6 0  0 -1.6 0  0.1333333333333333 -1.6 0  0.2666666666666666 -1.6 0  0.3999999999999999 -1.6 0  0.5333333333333332 -1.6 0  0.6666666666666665 -1.6 0  0.7999999999999998 -1.6 0  0.9333333333333331 -1.6 0  1.066666666666667 -1.6 0  1.2 -1.6 0  1.333333333333333 -1.6 0  1.466666666666667 -1.6 0  1.6 -1.6 0  1.733333333333333 -1.6 0  1.866666666666667 -1.6 0  2 -1.6 0  -2 -1.466666666666667 0  -1.866666666666667 -1.466666666666667 0  -1.733333333333333 -1.466666666666667 0  -1.6 -1.466666666666667 0  -1.466666666666667 -1.466666666666667 0  -1.333333333333333 -1.466666666666667 0  -1.2 -1.466666666666667 0  -1.066666666666667 -1.466666666666667 0  -0.9333333333333333 -1.466666666666667 0  -0.8 -1.466666666666667 0  -0.6666666666666667 -1.466666666666667 0  -0.5333333333333334 -1.466666666666667 0  -0.3999999999999999 -1.466666666666667 0  -0.2666666666666666 -1.466666666666667 0  -0.1333333333333333 -1.466666666666667 0  0 -1.466666666666667 0  0.1333333333333333 -1.466666666666667 0  0.2666666666666666 -1.466666666666667 0  0.3999999999999999 -1.466666666666667 0  0.5333333333333332 -1.466666666666667 0  0.6666666666666665 -1.466666666666667 0  0.7999999999999998 -1.466666666666667 0  0.9333333333333331 -1.466666666666667 0  1.066666666666667 -1.466666666666667 0  1.2 -1.466666666666667 0  1.333333333333333 -1.466666666666667 0  1.466666666666667 -1.466666666666667 0  1.6 -1.466666666666667 0  1.733333333333333 -1.466666666666667 0  1.866666666666667 -1.466666666666667 0  2 -1.466666666666667 0  -2 -1.333333333333333 0  -1.866666666666667 -1.333333333333333 0  -1.733333333333333 -1.333333333333333 0  -1.6 -1.333333333333333 0  -1.466666666666667 -1.333333333333333 0  -1.333333333333333 -1.333333333333333 0  -1.2 -1.333333333333333 0  -1.066666666666667 -1.333333333333333 0  -0.9333333333333333 -1.333333333333333 0  -0.8 -1.333333333333333 0  -0.6666666666666667 -1.333333333333333 0  -0.5333333333333334 -1.333333333333333 0  -0.3999999999999999 -1.333333333333333 0  -0.2666666666666666 -1.333333333333333 0  -0.1333333333333333 -1.333333333333333 0  0 -1.333333333333333 0  0.1333333333333333 -1.333333333333333 0  0.2666666666666666 -1.333333333333333 0  0.3999999999999999 -1.333333333333333 0  0.5333333333333332 -1.333333333333333 0  0.6666666666666665 -1.333333333333333 0  0.7999999999999998 -1.333333333333333 0  0.9333333333333331 -1.333333333333333 0  1.066666666666667 -1.333333333333333 0  1.2 -1.333333333333333 0  1.333333333333333 -1.333333333333333 0  1.466666666666667 -1.333333333333333 0  1.6 -1.333333333333333 0  1.733333333333333 -1.333333333333333 0  1.866666666666667 -1.333333333333333 0  2 -1.333333333333333 0  -2 -1.2 0  -1.866666666666667 -1.2 0  -1.733333333333333 -1.2 0  -1.6 -1.2 0  -1.466666666666667 -1.2 0  -1.333333333333333 -1.2 0  -1.2 -1.2 0  -1.066666666666667 -1.2 0  -0.9333333333333333 -1.2 0  -0.8 -1.2 0  -0.6666666666666667 -1.2 0  -0.5333333333333334 -1.2 0  -0.3999999999999999 -1.2 0  -0.2666666666666666 -1.2 0  -0.1333333333333333 -1.2 0  0 -1.2 0  0.1333333333333333 -1.2 0  0.2666666666666666 -1.2 0  0.3999999999999999 -1.2 0  0.5333333333333332 -1.2 0  0.6666666666666665 -1.2 0  0.7999999999999998 -1.2 0  0.9333333333333331 -1.2 0  1.066666666666667 -1.2 0  1.2 -1.2 0  1.333333333333333 -1.2 0  1.466666666666667 -1.2 0  1.6 -1.2 0  1.733333333333333 -1.2 0  1.866666666666667 -1.2 0  2 -1.2 0  -2 -1.066666666666667 0  -1.866666666666667 -1.066666666666667 0  -1.733333333333333 -1.066666666666667 0  -1.6 -1.066666666666667 0  -1.466666666666667 -1.066666666666667 0  -1.333333333333333 -1.066666666666667 0  -1.2 -1.066666666666667 0  -1.066666666666667 -1.066666666666667 0  -0.9333333333333333 -1.066666666666667 0  -0.8 -1.066666666666667 0  -0.6666666666666667 -1.066666666666667 0  -0.5333333333333334 -1.066666666666667 0  -0.3999999999999999 -1.066666666666667 0  -0.2666666666666666 -1.066666666666667 0  -0.1333333333333333 -1.066666666666667 0  0 -1.066666666666667 0  0.1333333333333333 -1.066666666666667 0  0.2666666666666666 -1.066666666666667 0  0.3999999999999999 -1.066666666666667 0  0.5333333333333332 -1.066666666666667 0  0.6666666666666665 -1.066666666666667 0  0.7999999999999998 -1.066666666666667 0  0.9333333333333331 -1.066666666666667 0  1.066666666666667 -1.066666666666667 0  1.2 -1.066666666666667 0  1.333333333333333 -1.066666666666667 0  1.466666666666667 -1.066666666666667 0  1.6 -1.066666666666667 0  1.733333333333333 -1.066666666666667 0  1.866666666666667 -1.066666666666667 0  2 -1.066666666666667 0  -2 -0.9333333333333333 0  -1.866666666666667 -0.9333333333333333 0  -1.733333333333333 -0.9333333333333333 0  -1.6 -0.9333333333333333 0  -1.466666666666667 -0.9333333333333333 0  -1.333333333333333 -0.9333333333333333 0  -1.2 -0.9333333333333333 0  -1.066666666666667 -0.9333333333333333 0  -0.9333333333333333 -0.9333333333333333 0  -0.8 -0.9333333333333333 0  -0.6666666666666667 -0.9333333333333333 0  -0.5333333333333334 -0.9333333333333333 0  -0.3999999999999999 -0.9333333333333333 0  -0.2666666666666666 -0.9333333333333333 0  -0.1333333333333333 -0.9333333333333333 0  0 -0.9333333333333333 0  0.1333333333333333 -0.9333333333333333 0  0.2666666666666666 -0.9333333333333333 0  0.3999999999999999 -0.9333333333333333 0  0.5333333333333332 -0.9333333333333333 0  0.6666666666666665 -0.9333333333333333 0  0.7999999999999998 -0.9333333333333333 0  0.9333333333333331 -0.9333333333333333 0  1.066666666666667 -0.9333333333333333 0  1.2 -0.9333333333333333 0  1.333333333333333 -0.9333333333333333 0  1.466666666666667 -0.9333333333333333 0  1.6 -0.9333333333333333 0  1.733333333333333 -0.9333333333333333 0  1.866666666666667 -0.9333333333333333 0  2 -0.9333333333333333 0  -2 -0.8 0  -1.866666666666667 -0.8 0  -1.733333333333333 -0.8 0  -1.6 -0.8 0  -1.466666666666667 -0.8 0  -1.333333333333333 -0.8 0  -1.2 -0.8 0  -1.066666666666667 -0.8 0  -0.9333333333333333 -0.8 0  -0.8 -0.8 0  -0.6666666666666667 -0.8 0  -0.5333333333333334 -0.8 0  -0.3999999999999999 -0.8 0  -0.2666666666666666 -0.8 0  -0.1333333333333333 -0.8 0  0 -0.8 0  0.1333333333333333 -0.8 0  0.2666666666666666 -0.8 0  0.3999999999999999 -0.8 0  0.5333333333333332 -0.8 0  0.6666666666666665 -0.8 0  0.7999999999999998 -0.8 0  0.9333333333333331 -0.8 0  1.066666666666667 -0.8 0  1.2 -0.8 0  1.333333333333333 -0.8 0  1.466666666666667 -0.8 0  1.6 -0.8 0  1.733333333333333 -0.8 0  1.866666666666667 -0.8 0  2 -0.8 0  -2 -0.6666666666666667 0  -1.866666666666667 -0.
[...]
<PointData  Scalars="f_10422"> 
<DataArray  type="Float64"  Name="f_10422"  format="ascii">0.0000000000000000e+00  0.0000000000000000e+00  0.0000000000000000e+00  0.0000000000000000e+00  0.0000000000000000e+00  0.0000000000000000e+00  0.0000000000000000e+00  0.0000000000000000e+00  0.0000000000000000e+00  0.0000000000000000e+00  0.0000000000000000e+00  0.0000000000000000e+00  0.0000000000000000e+00  0.0000000000000000e+00  0.0000000000000000e+00  0.0000000000000000e+00  0.0000000000000000e+00  0.0000000000000000e+00  0.0000000000000000e+00  0.0000000000000000e+00  0.0000000000000000e+00  0.0000000000000000e+00  0.0000000000000000e+00  0.0000000000000000e+00  0.0000000000000000e+00  0.0000000000000000e+00  0.0000000000000000e+00  0.0000000000000000e+00  0.0000000000000000e+00  0.0000000000000000e+00  0.0000000000000000e+00  0.0000000000000000e+00  3.2112312993744764e-21  6.3814871685264945e-21  9.4783817883821606e-21  1.2469108070769726e-20  1.5321528785485031e-20  1.8004792065459386e-20  2.0489777640216496e-20  2.2749466259064376e-20  2.4759261903587077e-20  2.6497276218806441e-20  2.7944577581097974e-20  2.9085404668310824e-20  2.9907343512453726e-20  3.0401466818764658e-20  3.0562434451403173e-20  3.0388554258188320e-20  2.9881802763398635e-20  2.9047805664205569e-20  2.7895778506452922e-20  2.6438428384318082e-20  2.4691818012479110e-20  2.2675194083416192e-20  2.0410782507809617e-20  1.7923554089230832e-20  1.5240965767990759e-20  1.2392685741159868e-20  9.4103182701955505e-21  6.3271643849487561e-21  3.1781170327752701e-21  0.0000000000000000e+00  0.0000000000000000e+00  6.3814871685264945e-21  1.2685122003629686e-20  1.8844182848487871e-20  2.4792681987276495e-20  3.0466429830130708e-20  3.5803946867237061e-20  4.0747254228056069e-20  4.5242575021062412e-20  4.9240962409850403e-20  5.2698859952323755e-20  5.5578594539779327e-20  5.7848800006646871e-20  5.9484768706691289e-20  6.0468728336862522e-20  6.0790041676777104e-20  6.0445327521206906e-20  5.9438501822558464e-20  5.7780738880774937e-20  5.5490353293541667e-20  5.2592604300385490e-20  4.9119425126632293e-20  4.5109080987255233e-20  4.0605760619419459e-20  3.5659107735047961e-20  3.0323700958593884e-20  2.4658494346173343e-20  1.8726236872386119e-20  1.2592900611800652e-20  6.3271643849487576e-21  0.0000000000000000e+00  0.0000000000000000e+00  9.4783817883821606e-21  1.8844182848487877e-20  2.7996753781885727e-20  3.6837303627416111e-20  4.5270080249591502e-20  5.3203527241182262e-20  6.0551369211632842e-20  6.7233613767720158e-20  7.3177466254021222e-20  7.8318153491351303e-20  8.2599651830901089e-20  8.5975314349238336e-20  8.8408392093155915e-20  8.9872444809936928e-20  9.0351637426021968e-20  8.9840919562557919e-20  8.8346086532010757e-20  8.5883721502163956e-20  8.2481019815097874e-20  7.8175497794747926e-20  7.3014589765976159e-20  6.7055138456173979e-20  6.0362785497295533e-20  5.3011270467638386e-20  4.5081648925047422e-20  3.6661442298547373e-20  2.7843735166589237e-20  1.8726236872386122e-20  9.4103182701955550e-21  0.0000000000000000e+00  0.0000000000000000e+00  1.2469108070769725e-20  2.4792681987276489e-20  3.6837303627416117e-20  4.8472358894018921e-20  5.9571469412884690e-20  7.0013916899187479e-20  7.9686010996469403e-20  8.8482373886409442e-20  9.6307125474061235e-20  1.0307495724718722e-19  1.0871208477226458e-19  1.1315706993869999e-19  1.1636150513939498e-19  1.1829055277486304e-19  1.1892333482104157e-19  1.1825316868803887e-19  1.1628764718732031e-19  1.1304856208876244e-19  1.0857167246201462e-19  1.0290632073984689e-19  9.6114901201717793e-20  8.8272187346317140e-20  7.9464526397640375e-20  6.9788910956242790e-20  5.9351939503991558e-20  4.8268678878418022e-20  3.6661442298547385e-20  2.4658494346173358e-20  1.2392685741159875e-20  0.0000000000000000e+00  0.0000000000000000e+00  1.5321528785485031e-20  3.0466429830130714e-20  4.5270080249591508e-20  5.9571469412884690e-20  7.3214932846415054e-20  8.6051862030596838e-20  9.7942351506843000e-20  1.0875675418891061e-19  1.1837712298242208e-19  1.2669852135301188e-19  1.3363018837858854e-19  1.3909654594632151e-19  1.4303803760744860e-19  1.4541179041757660e-19  1.4619209295908218e-19  1.4537068468948610e-19  1.4295685377924972e-19  1.3897734267631873e-19  1.3347606274086196e-19  1.2651362140893843e-19  1.1816666744449544e-19  1.0852706189821285e-19  9.7700884371907055e-20  8.5807286023681669e-20  7.2977202312393160e-20  5.9351939503991582e-20  4.5081648925047464e-20  3.0323700958593914e-20  1.5240965767990771e-20  0.0000000000000000e+00  0.0000000000000000e+00  1.8004792065459380e-20  3.5803946867237025e-20  5.3203527241182225e-20  7.0013916899187430e-20  8.6051862030596814e-20  1.0114246770242607e-19  1.1512111728483501e-19  1.2783528632518986e-19  1.3914622643430988e-19  1.4893049838853958e-19  1.5708133664024113e-19  1.6350982998671916e-19  1.6814590550102026e-19  1.7093910512648149e-19  1.7185914665712722e-19  1.7089626319694585e-19  1.6806131761379802e-19  1.6338569096422938e-19  1.5692094634167842e-19  1.4873827206542707e-19  1.3892771054948270e-19  1.2759718153068346e-19  1.1487131054164479e-19  1.0089007550947508e-19  8.5807286023681657e-20  6.9788910956242790e-20  5.3011270467638374e-20  3.5659107735047967e-20  1.7923554089230838e-20  0.0000000000000000e+00  0.0000000000000000e+00  2.0489777640216466e-20  4.0747254228056003e-20  6.0551369211632770e-20  7.9686010996469295e-20  9.7942351506842916e-20  1.1512111728483498e-19  1.3103476780647169e-19  1.4550955266506935e-19  1.5838742168794852e-19  1.6952776486212691e-19  1.7880896173998788e-19  1.8612972270114863e-19  1.9141020710034852e-19  1.9459290598629732e-19  1.9564327976826630e-19  1.9455014394881146e-19  1.9132579882785208e-19  1.8600590189872548e-19  1.7864908447601330e-19  1.6933631688707823e-19  1.5817002928802030e-19  1.4527299778673021e-19  1.3078700801721136e-19  1.1487131054164472e-19  9.7700884371907019e-20  7.9464526397640339e-20  6.0362785497295485e-20  4.0605760619419435e-20  2.0410782507809614e-20  0.0000000000000000e+00  0.0000000000000000e+00  2.2749466259064352e-20  4.5242575021062364e-20  6.7233613767720122e-20  8.8482373886409358e-20  1.0875675418891051e-19  1.2783528632518978e-19  1.4550955266506930e-19  1.6158646770595560e-19  1.7589039575427600e-19  1.8826507995081242e-19  1.9857536032520832e-19  2.0670866131928639e-19  2.1257623206084305e-19  2.1611412558786622e-19  2.1728390621448638e-19  2.1607307728671138e-19  2.1249522468255381e-19  2.0658987454457477e-19  1.9842206686402682e-19  1.8808164963047929e-19  1.7568230128015699e-19  1.6136029207634697e-19  1.4527299778673024e-19  1.2759718153068344e-19  1.0852706189821283e-19  8.8272187346317104e-20  6.7055138456173943e-20  4.5109080987255227e-20  2.2675194083416180e-20  0.0000000000000000e+00  0.0000000000000000e+00  2.4759261903587053e-20  4.9240962409850361e-20  7.3177466254021137e-20  9.6307125474061175e-20  1.1837712298242194e-19  1.3914622643430981e-19  1.5838742168794847e-19  1.7589039575427593e-19  1.9146384063101094e-19  2.0493755154061489e-19  2.1616429562166190e-19  2.2502142991726930e-19  2.3141225048347189e-19  2.3526705756087659e-19  2.3654392498588190e-19  2.3522916533812986e-19  2.3133748570203574e-19  2.2491183233211773e-19  2.1602292592060842e-19  2.0476849253419100e-19  1.9127219857437251e-19  1.7568230128015740e-19  1.5817002928802066e-19  1.3892771054948297e-19  1.1816666744449566e-19  9.6114901201717937e-20  7.3014589765976316e-20  4.9119425126632377e-20  2.4691818012479158e-20  0.0000000000000000e+00  0.0000000000000000e+00  2.6497276218806402e-20  5.2698859952323671e-20  7.8318153491351183e-20  1.0307495724718711e-19  1.2669852135301181e-19  1.4893049838853958e-19  1.6952776486212694e-19  1.8826507995081245e-19  2.0493755154061491e-19  2.1936288171116355e-19  2.3138336633911466e-19  2.4086762634623723e-19  2.4771205121279484e-19  2.5184193865966007e-19  2.5321231783122979e-19  2.5180844684905565e-19  2.4764597921787624e-19  2.4077079721512109e-19  2.3125851404389556e-19  2.1921365013798374e-19  2.0476849253419136e-19  1.8808164963048001e-19  1.6933631688707895e-19  1.4873827206542758e-19  1.2651362140893881e-19  1.0290632073984722e-19  7.8175497794748167e-20  5.2592604300385640e-20  2.6438428384318163e-20  0.0000000000000000e+00  0.0000000000000000e+00  2.7944577581097920e-20  5.5578594539779219e-20  8.2599651830900969e-20  1.0871208477226448e-19  1.3363018837858847e-19  1.5708133664024113e-19  1.7880896173998788e-19  1.9857536032520840e-19  2.1616429562166190e-19  2.3138336633911466e-19  2.4406611590198729e-19  2.5407385846199012e-19  2.6129720134723565e-19  2.6565724701769092e-19  2.6710646118248750e-19  2.6562919744767007e-19  2.6124187266242133e-19  2.5399279097679620e-19  2.4396161847308280e-19  2.3125851404389580e-19  2.1602292592060916e-19  1.9842206686402779e-19  1.7864908447601443e-19  1.5692094634167917e-19  1.3347606274086249e-19  1.0857167246201503e-19  8.2481019815098199e-20  5.5490353293541860e-20  2.7895778506453031e-20  0.0000000000000000e+00  0.0000000000000000e+00  2.9085404668310757e-20  5.7848800006646714e-20  8.5975314349238143e-20  1.1315706993869973e-19  1.3909654594632120e-19  1.6350982998671899e-19  1.8612972270114856e-19  2.0670866131928639e-19  2.2502142991726930e-19  2.4086762634623733e-19  2.5407385846199003e-19  2.6449564528568085e-19  2.7201900201149593e-19  2.7656169129782875e-19  2.7807412698539275e-19  2.7653992023358472e-19  2.7197606201111743e-19  2.6443273987472556e-19  2.5399279097679624e-19  2.4077079721512152e-19  2.2491183233211845e-19  2.0658987454457583e-19  1.8600590189872661e-19  1.6338569096423012e-19  1.3897734267631914e-19  1.1304856208876285e-19  8.5883721502164281e-20  5.7780738880775165e-20  2.9047805664205702e-20  0.0000000000000000e+00  0.0000000000000000e+00  2.9907343512453641e-20  5.9484768706691120e-20  8.8408392093155602e-20  1.1636150513939459e-19  1.4303803760744814e-19  1.6814590550102000e-19  1.9141020710034847e-19  2.1257623206084307e-19  2.3141225048347180e-19  2.4771205121279460e-19  2.6129720134723560e-19  2.7201900201149588e-19  2.7976011879568338e-19  2.8443586886244536e-19  2.8599515051577789e-19  2.8442100496759878e-19  2.7973080408540092e-19  2.7197606201111728e-19  2.6124187266242114e-19  2.4764597921787643e-19  2.3133748570203636e-19  2.1249522468255487e-19  1.9132579882785306e-19  1.6806131761379872e-19  1.4295685377925017e-19  1.1628764718732067e-19  8.8346086532011034e-20  5.9438501822558680e-20  2.9881802763398743e-20  0.0000000000000000e+00  0.0000000000000000e+00  3.0401466818764561e-20  6.0468728336862294e-20  8.9872444809936543e-20  1.1829055277486266e-19  1.4541179041757615e-19  1.7093910512648123e-19  1.9459290598629708e-19  2.1611412558786608e-19  2.3526705756087645e-19  2.5184193865965978e-19  2.6565724701769063e-19  2.7656169129782856e-19  2.8443586886244527e-19  2.8919357472802623e-19  2.9078274690913336e-19  2.8918603775241289e-19  2.8442100496759859e-19  2.7653992023358438e-19  2.6562919744766964e-19  2.5180844684905579e-19  2.3522916533813044e-19  2.1607307728671229e-19  1.9455014394881238e-19  1.7089626319694652e-19  1.4537068468948655e-19  1.1825316868803923e-19  8.9840919562558148e-20  6.0445327521207098e-20  3.0388554258188423e-20  0.0000000000000000e+00  0.0000000000000000e+00  3.0562434451403070e-20  6.0790041676776887e-20  9.0351637426021619e-20  1.1892333482104114e-19  1.4619209295908167e-19  1.7185914665712693e-19  1.9564327976826596e-19  2.1728390621448604e-19  2.3654392498588146e-19  2.5321231783122921e-19  2.6710646118248693e-19  2.7807412698539217e-19  2.8599515051577751e-19  2.9078274690913302e-19  2.9238446197933931e-19  2.9078274690913321e-19  2.8599515051577765e-19  2.7807412698539217e-19  2.6710646118248707e-19  2.5321231783122993e-19  2.3654392498588238e-19  2.1728390621448715e-19  1.9564327976826712e-19  1.7185914665712787e-19  1.4619209295908256e-19  1.1892333482104188e-19  9.0351637426022209e-20  6.0790041676777284e-20  3.0562434451403275e-20  0.0000000000000000e+00  0.0000000000000000e+00  3.0388554258188212e-20  6.0445327521206701e-20  8.9840919562557582e-20  1.1825316868803848e-19  1.4537068468948569e-19  1.7089626319694553e-19  1.9455014394881117e-19  2.1607307728671094e-19  2.3522916533812938e-19  2.5180844684905502e-19  2.6562919744766930e-19  2.7653992023358414e-19  2.8442100496759811e-19  2.8918603775241231e-19  2.9078274690913293e-19  2.8919357472802618e-19  2.8443586886244507e-19  2.7656169129782827e-19  2.6565724701769072e-19  2.5184193865966026e-19  2.3526705756087712e-19  2.1611412558786704e-19  1.9459290598629811e-19  1.7093910512648207e-19  1.4541179041757704e-19  1.1829055277486338e-19  8.9872444809937169e-20  6.0468728336862715e-20  3.0401466818764772e-20  0.0000000000000000e+00  0.0000000000000000e+00  2.9881802763398514e-20  5.9438501822558259e-20  8.8346086532010444e-20  1.1628764718731992e-19  1.4295685377924938e-19  1.6806131761379771e-19  1.9132579882785167e-19  2.1249522468255337e-19  2.3133748570203501e-19  2.4764597921787537e-19  2.6124187266242032e-19  2.7197606201111675e-19  2.7973080408540015e-19  2.8442100496759796e-19  2.8599515051577727e-19  2.8443586886244507e-19  2.7976011879568304e-19  2.7201900201149564e-19  2.6129720134723551e-19  2.4771205121279513e-19  2.3141225048347252e-19  2.1257623206084394e-19  1.9141020710034939e-19  1.6814590550102091e-19  1.4303803760744910e-19  1.1636150513939536e-19  8.8408392093156155e-20  5.9484768706691469e-20  2.9907343512453822e-20  0.0000000000000000e+00  0.0000000000000000e+00  2.9047805664205461e-20  5.7780738880774720e-20  8.5883721502163643e-20  1.1304856208876213e-19  1.3897734267631835e-19  1.6338569096422909e-19  1.8600590189872519e-19  2.0658987454457434e-19  2.2491183233211705e-19  2.4077079721512027e-19  2.5399279097679518e-19  2.6443273987472469e-19  2.7197606201111651e-19  2.7653992023358376e-19  2.7807412698539174e-19  2.7656169129782808e-19  2.7201900201149544e-19  2.6449564528568051e-19  2.5407385846198998e-19  2.4086762634623752e-19  2.2502142991726992e-19  2.0670866131928728e-19  1.8612972270114942e-19  1.6350982998671983e-19  1.3909654594632202e-19  1.1315706993870033e-19  8.5975314349238589e-20  5.7848800006647027e-20  2.9085404668310908e-20  0.0000000000000000e+00  0.0000000000000000e+00  2.7895778506452820e-20  5.5490353293541487e-20  8.2481019815097634e-20  1.0857167246201435e-19  1.3347606274086170e-19  1.5692094634167818e-19  1.7864908447601315e-19  1.9842206686402637e-19  2.1602292592060779e-19  2.3125851404389465e-19  2.4396161847308169e-19  2.5399279097679528e-19  2.6124187266242003e-19  2.6562919744766896e-19  2.6710646118248659e-19  2.6565724701769015e-19  2.6129720134723507e-19  2.5407385846198964e-19  2.4406611590198715e-19  2.3138336633911481e-19  2.1616429562166255e-19  1.9857536032520936e-19  1.7880896173998882e-19  1.5708133664024200e-19  1.3363018837858919e-19  1.0871208477226501e-19  8.2599651830901390e-20  5.5578594539779472e-20  2.7944577581098052e-20  0.0000000000000000e+00  0.0000000000000000e+00  2.6438428384317989e-20  5.2592604300385303e-20  7.8175497794747697e-20  1.0290632073984664e-19  1.2651362140893811e-19  1.4873827206542671e-19  1.6933631688707782e-19  1.8808164963047874e-19  2.0476849253419028e-19  2.1921365013798282e-19  2.3125851404389489e-19  2.4077079721512051e-19  2.4764597921787537e-19  2.5180844684905492e-19  2.5321231783122902e-19  2.5184193865965949e-19  2.4771205121279441e-19  2.4086762634623709e-19  2.3138336633911462e-19  2.1936288171116384e-19  2.0493755154061563e-19  1.8826507995081358e-19  1.6952776486212800e-19  1.4893049838854035e-19  1.2669852135301251e-19  1.0307495724718763e-19  7.8318153491351592e-20  5.2698859952323948e-20  2.6497276218806547e-20  0.0000000000000000e+00  0.0000000000000000e+00  2.4691818012479026e-20  4.9119425126632118e-20  7.3014589765975943e-20  9.6114901201717444e-20  1.1816666744449503e-19  1.3892771054948229e-19  1.5817002928801980e-19  1.7568230128015643e-19  1.9127219857437164e-19  2.0476849253419033e-19  2.1602292592060810e-19  2.2491183233211749e-19  2.3133748570203516e-19  2.3522916533812953e-19  2.3654392498588146e-19  2.3526705756087630e-19  2.3141225048347175e-19  2.2502142991726920e-19  2.1616429562166204e-19  2.0493755154061532e-19  1.9146384063101164e-19  1.7589039575427699e-19  1.5838742168794941e-19  1.3914622643431053e-19  1.1837712298242264e-19  9.6307125474061693e-20  7.3177466254021535e-20  4.9240962409850613e-20  2.4759261903587195e-20  0.0000000000000000e+00  0.0000000000000000e+00  2.2675194083416084e-20  4.5109080987255035e-20  6.7055138456173702e-20  8.8272187346316755e-20  1.0852706189821244e-19  1.2759718153068296e-19  1.4527299778672954e-19  1.6136029207634620e-19  1.7568230128015631e-19  1.8808164963047891e-19  1.9842206686402668e-19  2.0658987454457473e-19  2.1249522468255364e-19  2.1607307728671118e-19  2.1728390621448614e-19  2.1611412558786613e-19  2.1257623206084310e-19  2.0670866131928639e-19  1.9857536032520852e-19  1.8826507995081290e-19  1.7589039575427673e-19  1.6158646770595646e-19  1.4550955266507017e-19  1.2783528632519051e-19  1.0875675418891118e-19  8.8482373886409899e-20  6.7233613767720471e-20  4.5242575021062623e-20  2.2749466259064484e-20  0.0000000000000000e+00  0.0000000000000000e+00  2.0410782507809509e-20  4.0605760619419243e-20  6.0362785497295196e-20  7.9464526397639941e-20  9.7700884371906586e-20  1.1487131054164424e-19  1.3078700801721071e-19  1.4527299778672947e-19  1.5817002928801970e-19  1.6933631688707787e-19  1.7864908447601339e-19  1.8600590189872545e-19  1.9132579882785179e-19  1.9455014394881136e-19  1.9564327976826608e-19  1.9459290598629720e-19  1.9141020710034837e-19  1.8612972270114846e-19  1.7880896173998790e-19  1.6952776486212722e-19  1.5838742168794893e-19  1.4550955266507000e-19  1.3103476780647231e-19  1.1512111728483549e-19  9.7942351506843409e-20  7.9686010996469704e-20  6.0551369211633071e-20  4.0747254228056207e-20  2.0489777640216568e-20  0.0000000000000000e+00  0.0000000000000000e+00  1.7923554089230742e-20  3.5659107735047792e-20  5.3011270467638121e-20  6.9788910956242477e-20  8.5807286023681284e-20  1.0089007550947462e-19  1.1487131054164414e-19  1.2759718153068277e-19  1.3892771054948215e-19  1.4873827206542666e-19  1.5692094634167825e-19  1.6338569096422923e-19  1.6806131761379783e-19  1.7089626319694568e-19  1.7185914665712695e-19  1.7093910512648125e-19  1.6814590550102007e-19  1.6350982998671896e-19  1.5708133664024116e-19  1.4893049838853974e-19  1.3914622643431025e-19  1.2783528632519039e-19  1.1512111728483549e-19  1.0114246770242652e-19  8.6051862030597235e-20  7.0013916899187755e-20  5.3203527241182454e-20  3.5803946867237175e-20  1.8004792065459456e-20  0.0000000000000000e+00  0.0000000000000000e+00  1.5240965767990690e-20  3.0323700958593757e-20  4.5081648925047236e-20  5.9351939503991317e-20  7.2977202312392847e-20  8.5807286023681272e-20  9.7700884371906574e-20  1.0852706189821230e-19  1.1816666744449499e-19  1.2651362140893806e-19  1.3347606274086177e-19  1.3897734267631852e-19  1.4295685377924960e-19  1.4537068468948590e-19  1.4619209295908189e-19  1.4541179041757639e-19  1.4303803760744838e-19  1.3909654594632134e-19  1.3363018837858854e-19  1.2669852135301205e-19  1.1837712298242237e-19  1.0875675418891106e-19  9.7942351506843349e-20  8.6051862030597199e-20  7.3214932846415367e-20  5.9571469412884919e-20  4.5270080249591670e-20  3.0466429830130834e-20  1.5321528785485094e-20  0.0000000000000000e+00  0.0000000000000000e+00  1.2392685741159815e-20  2.4658494346173237e-20  3.6661442298547217e-20  4.8268678878417823e-20  5.9351939503991329e-20  6.9788910956242513e-20  7.9464526397639977e-20  8.8272187346316707e-20  9.6114901201717456e-20  1.0290632073984665e-19  1.0857167246201445e-19  1.1304856208876229e-19  1.1628764718732009e-19  1.1825316868803870e-19  1.1892333482104138e-19  1.1829055277486283e-19  1.1636150513939479e-19  1.1315706993869980e-19  1.0871208477226451e-19  1.0307495724718729e-19  9.6307125474061548e-20  8.8482373886409839e-20  7.96860109964