<?xml version="1.0"?>
<VTKFile type="UnstructuredGrid"  version="0.1"  >
<UnstructuredGrid>
<Piece  NumberOfPoints="961" NumberOfCells="1800">
<Points>
<DataArray  type="Float64"  NumberOfComponents="3"  format="ascii">-2 -2 0  -1.866666666666667 -2 0  -1.733333333333333 -2 0  -1.6 -2 0  -1.466666666666667 -2 0  -1.333333333333333 -2 0  -1.2 -2 0  -1.066666666666667 -2 0  -0.9333333333333333 -2 0  -0.8 -2 0  -0.6666666666666667 -2 0  -0.5333333333333334 -2 0  -0.3999999999999999 -2 0  -0.2666666666666666 -2 0  -0.1333333333333333 -2 0  0 -2 0  0.1333333333333333 -2 0  0.2666666666666666 -2 0  0.3999999999999999 -2 0  0.5333333333333332 -2 0  0.6666666666666665 -2 0  0.7999999999999998 -2 0  0.9333333333333331 -2 0  1.066666666666667 -2 0  1.2 -2 0  1.333333333333333 -2 0  1.466666666666667 -2 0  1.6 -2 0  1.733333333333333 -2 0  1.866666666666667 -2 0  2 -2 0  -2 -1.866666666666667 0  -1.866666666666667 -1.866666666666667 0  -1.733333333333333 -1.866666666666667 0  -1.6 -1.866666666666667 0  -1.466666666666667 -1.866666666666667 0  -1.333333333333333 -1.866666666666667 0  -1.2 -1.866666666666667 0  -1.066666666666667 -1.866666666666667 0  -0.9333333333333333 -1.866666666666667 0  -0.8 -1.866666666666667 0  -0.6666666666666667 -1.866666666666667 0  -0.5333333333333334 -1.866666666666667 0  -0.3999999999999999 -1.866666666666667 0  -0.2666666666666666 -1.866666666666667 0  -0.1333333333333333 -1.866666666666667 0  0 -1.866666666666667 0  0.1333333333333333 -1.866666666666667 0  0.2666666666666666 -1.866666666666667 0  0.3999999999999999 -1.866666666666667 0  0.5333333333333332 -1.866666666666667 0  0.6666666666666665 -1.866666666666667 0  0.7999999999999998 -1.866666666666667 0  0.9333333333333331 -1.866666666666667 0  1.066666666666667 -1.866666666666667 0  1.2 -1.866666666666667 0  1.333333333333333 -1.866666666666667 0  1.466666666666667 -1.866666666666667 0  1.6 -1.866666666666667 0  1.733333333333333 -1.866666666666667 0  1.866666666666667 -1.866666666666667 0  2 -1.866666666666667 0  -2 -1.733333333333333 0  -1.866666666666667 -1.733333333333333 0  -1.733333333333333 -1.733333333333333 0  -1.6 -1.733333333333333 0  -1.466666666666667 -1.733333333333333 0  -1.333333333333333 -1.733333333333333 0  -1.2 -1.733333333333333 0  -1.066666666666667 -1.733333333333333 0  -0.9333333333333333 -1.733333333333333 0  -0.8 -1.733333333333333 0  -0.6666666666666667 -1.733333333333333 0  -0.5333333333333334 -1.733333333333333 0  -0.3999999999999999 -1.733333333333333 0  -0.2666666666666666 -1.733333333333333 0  -0.1333333333333333 -1.733333333333333 0  0 -1.733333333333333 0  0.1333333333333333 -1.733333333333333 0  0.2666666666666666 -1.733333333333333 0  0.3999999999999999 -1.733333333333333 0  0.5333333333333332 -1.733333333333333 0  0.6666666666666665 -1.733333333333333 0  0.7999999999999998 -1.733333333333333 0  0.9333333333333331 -1.733333333333333 0  1.066666666666667 -1.733333333333333 0  1.2 -1.733333333333333 0  1.333333333333333 -1.733333333333333 0  1.466666666666667 -1.733333333333333 0  1.6 -1.733333333333333 0  1.733333333333333 -1.733333333333333 0  1.866666666666667 -1.733333333333333 0  2 -1.733333333333333 0  -2 -1.6 0  -1.866666666666667 -1.6 0  -1.733333333333333 -1.6 0  -1.6 -1.6 0  -1.466666666666667 -1.6 0  -1.333333333333333 -1.6 0  -1.2 -1.6 0  -1.066666666666667 -1.6 0  -0.9333333333333333 -1.6 0  -0.8 -1.6 0  -0.6666666666666667 -1.6 0  -0.5333333333333334 -1.6 0  -0.3999999999999999 -1.6 0  -0.2666666666666666 -1.6 0  -0.1333333333333333 -1.6 0  0 -1.6 0  0.1333333333333333 -1.6 0  0.2666666666666666 -1.6 0  0.3999999999999999 -1.6 0  0.5333333333333332 -1.6 0  0.6666666666666665 -1.6 0  0.7999999999999998 -1.6 0  0.9333333333333331 -1.6 0  1.066666666666667 -1.6 0  1.2 -1.6 0  1.333333333333333 -1.6 0  1.466666666666667 -1.6 0  1.6 -1.6 0  1.733333333333333 -1.6 0  1.866666666666667 -1.6 0  2 -1.6 0  -2 -1.466666666666667 0  -1.866666666666667 -1.466666666666667 0  -1.733333333333333 -1.466666666666667 0  -1.6 -1.466666666666667 0  -1.466666666666667 -1.466666666666667 0  -1.333333333333333 -1.466666666666667 0  -1.2 -1.466666666666667 0  -1.066666666666667 -1.466666666666667 0  -0.9333333333333333 -1.466666666666667 0  -0.8 -1.466666666666667 0  -0.6666666666666667 -1.466666666666667 0  -0.5333333333333334 -1.466666666666667 0  -0.3999999999999999 -1.466666666666667 0  -0.2666666666666666 -1.466666666666667 0  -0.1333333333333333 -1.466666666666667 0  0 -1.466666666666667 0  0.1333333333333333 -1.466666666666667 0  0.2666666666666666 -1.466666666666667 0  0.3999999999999999 -1.466666666666667 0  0.5333333333333332 -1.466666666666667 0  0.6666666666666665 -1.466666666666667 0  0.7999999999999998 -1.466666666666667 0  0.9333333333333331 -1.466666666666667 0  1.066666666666667 -1.466666666666667 0  1.2 -1.466666666666667 0  1.333333333333333 -1.466666666666667 0  1.466666666666667 -1.466666666666667 0  1.6 -1.466666666666667 0  1.733333333333333 -1.466666666666667 0  1.866666666666667 -1.466666666666667 0  2 -1.466666666666667 0  -2 -1.333333333333333 0  -1.866666666666667 -1.333333333333333 0  -1.733333333333333 -1.333333333333333 0  -1.6 -1.333333333333333 0  -1.466666666666667 -1.333333333333333 0  -1.333333333333333 -1.333333333333333 0  -1.2 -1.333333333333333 0  -1.066666666666667 -1.333333333333333 0  -0.9333333333333333 -1.333333333333333 0  -0.8 -1.333333333333333 0  -0.6666666666666667 -1.333333333333333 0  -0.5333333333333334 -1.333333333333333 0  -0.3999999999999999 -1.333333333333333 0  -0.2666666666666666 -1.333333333333333 0  -0.1333333333333333 -1.333333333333333 0  0 -1.333333333333333 0  0.1333333333333333 -1.333333333333333 0  0.2666666666666666 -1.333333333333333 0  0.3999999999999999 -1.333333333333333 0  0.5333333333333332 -1.333333333333333 0  0.6666666666666665 -1.333333333333333 0  0.7999999999999998 -1.333333333333333 0  0.9333333333333331 -1.333333333333333 0  1.066666666666667 -1.333333333333333 0  1.2 -1.333333333333333 0  1.333333333333333 -1.333333333333333 0  1.466666666666667 -1.333333333333333 0  1.6 -1.333333333333333 0  1.733333333333333 -1.333333333333333 0  1.866666666666667 -1.333333333333333 0  2 -1.333333333333333 0  -2 -1.2 0  -1.866666666666667 -1.2 0  -1.733333333333333 -1.2 0  -1.6 -1.2 0  -1.466666666666667 -1.2 0  -1.333333333333333 -1.2 0  -1.2 -1.2 0  -1.066666666666667 -1.2 0  -0.9333333333333333 -1.2 0  -0.8 -1.2 0  -0.6666666666666667 -1.2 0  -0.5333333333333334 -1.2 0  -0.3999999999999999 -1.2 0  -0.2666666666666666 -1.2 0  -0.1333333333333333 -1.2 0  0 -1.2 0  0.1333333333333333 -1.2 0  0.2666666666666666 -1.2 0  0.3999999999999999 -1.2 0  0.5333333333333332 -1.2 0  0.6666666666666665 -1.2 0  0.7999999999999998 -1.2 0  0.9333333333333331 -1.2 0  1.066666666666667 -1.2 0  1.2 -1.2 0  1.333333333333333 -1.2 0  1.466666666666667 -1.2 0  1.6 -1.2 0  1.733333333333333 -1.2 0  1.866666666666667 -1.2 0  2 -1.2 0  -2 -1.066666666666667 0  -1.866666666666667 -1.066666666666667 0  -1.733333333333333 -1.066666666666667 0  -1.6 -1.066666666666667 0  -1.466666666666667 -1.066666666666667 0  -1.333333333333333 -1.066666666666667 0  -1.2 -1.066666666666667 0  -1.066666666666667 -1.066666666666667 0  -0.9333333333333333 -1.066666666666667 0  -0.8 -1.066666666666667 0  -0.6666666666666667 -1.066666666666667 0  -0.5333333333333334 -1.066666666666667 0  -0.3999999999999999 -1.066666666666667 0  -0.2666666666666666 -1.066666666666667 0  -0.1333333333333333 -1.066666666666667 0  0 -1.066666666666667 0  0.1333333333333333 -1.066666666666667 0  0.2666666666666666 -1.066666666666667 0  0.3999999999999999 -1.066666666666667 0  0.5333333333333332 -1.066666666666667 0  0.6666666666666665 -1.066666666666667 0  0.7999999999999998 -1.066666666666667 0  0.9333333333333331 -1.066666666666667 0  1.066666666666667 -1.066666666666667 0  1.2 -1.066666666666667 0  1.333333333333333 -1.066666666666667 0  1.466666666666667 -1.066666666666667 0  1.6 -1.066666666666667 0  1.733333333333333 -1.066666666666667 0  1.866666666666667 -1.066666666666667 0  2 -1.066666666666667 0  -2 -0.9333333333333333 0  -1.866666666666667 -0.9333333333333333 0  -1.733333333333333 -0.9333333333333333 0  -1.6 -0.9333333333333333 0  -1.466666666666667 -0.9333333333333333 0  -1.333333333333333 -0.9333333333333333 0  -1.2 -0.9333333333333333 0  -1.066666666666667 -0.9333333333333333 0  -0.9333333333333333 -0.9333333333333333 0  -0.8 -0.9333333333333333 0  -0.6666666666666667 -0.9333333333333333 0  -0.5333333333333334 -0.9333333333333333 0  -0.3999999999999999 -0.9333333333333333 0  -0.2666666666666666 -0.9333333333333333 0  -0.1333333333333333 -0.9333333333333333 0  0 -0.9333333333333333 0  0.1333333333333333 -0.9333333333333333 0  0.2666666666666666 -0.9333333333333333 0  0.3999999999999999 -0.9333333333333333 0  0.5333333333333332 -0.9333333333333333 0  0.6666666666666665 -0.9333333333333333 0  0.7999999999999998 -0.9333333333333333 0  0.9333333333333331 -0.9333333333333333 0  1.066666666666667 -0.9333333333333333 0  1.2 -0.9333333333333333 0  1.333333333333333 -0.9333333333333333 0  1.466666666666667 -0.9333333333333333 0  1.6 -0.9333333333333333 0  1.733333333333333 -0.9333333333333333 0  1.866666666666667 -0.9333333333333333 0  2 -0.9333333333333333 0  -2 -0.8 0  -1.866666666666667 -0.8 0  -1.733333333333333 -0.8 0  -1.6 -0.8 0  -1.466666666666667 -0.8 0  -1.333333333333333 -0.8 0  -1.2 -0.8 0  -1.066666666666667 -0.8 0  -0.9333333333333333 -0.8 0  -0.8 -0.8 0  -0.6666666666666667 -0.8 0  -0.5333333333333334 -0.8 0  -0.3999999999999999 -0.8 0  -0.2666666666666666 -0.8 0  -0.1333333333333333 -0.8 0  0 -0.8 0  0.1333333333333333 -0.8 0  0.2666666666666666 -0.8 0  0.3999999999999999 -0.8 0  0.5333333333333332 -0.8 0  0.6666666666666665 -0.8 0  0.7999999999999998 -0.8 0  0.9333333333333331 -0.8 0  1.066666666666667 -0.8 0  1.2 -0.8 0  1.333333333333333 -0.8 0  1.466666666666667 -0.8 0  1.6 -0.8 0  1.733333333333333 -0.8 0  1.866666666666667 -0.8 0  2 -0.8 0  -2 -0.6666666666666667 0  -1.866666666666667 -0.
[...]
<PointData  Scalars="f_10422"> 
<DataArray  type="Float64"  Name="f_10422"  format="ascii">0.0000000000000000e+00  0.0000000000000000e+00  0.0000000000000000e+00  0.0000000000000000e+00  0.0000000000000000e+00  0.0000000000000000e+00  0.0000000000000000e+00  0.0000000000000000e+00  0.0000000000000000e+00  0.0000000000000000e+00  0.0000000000000000e+00  0.0000000000000000e+00  0.0000000000000000e+00  0.0000000000000000e+00  0.0000000000000000e+00  0.0000000000000000e+00  0.0000000000000000e+00  0.0000000000000000e+00  0.0000000000000000e+00  0.0000000000000000e+00  0.0000000000000000e+00  0.0000000000000000e+00  0.0000000000000000e+00  0.0000000000000000e+00  0.0000000000000000e+00  0.0000000000000000e+00  0.0000000000000000e+00  0.0000000000000000e+00  0.0000000000000000e+00  0.0000000000000000e+00  0.0000000000000000e+00  0.0000000000000000e+00  2.2900377149227195e-21  4.5508544638524590e-21  6.7593548231981716e-21  8.8921429481184316e-21  1.0926300692158014e-20  1.2839826544813193e-20  1.4611953855711404e-20  1.6223414282791593e-20  1.7656667572936387e-20  1.8896104399459357e-20  1.9928223980864851e-20  2.0741786384928294e-20  2.1327938790958307e-20  2.1680314842940232e-20  2.1795106309283947e-20  2.1671106459002950e-20  2.1309724818450342e-20  2.0714973262665399e-20  1.9893423709264282e-20  1.8854138017141732e-20  1.7608571051733301e-20  1.6170448280798268e-20  1.4555619753417901e-20  1.2781892994687527e-20  1.0868848477947909e-20  8.8376435985689583e-21  6.7108164249557230e-21  4.5121150484771691e-21  2.2664228107490595e-21  0.0000000000000000e+00  0.0000000000000000e+00  4.5508544638524590e-21  9.0461897940415030e-21  1.3438424519075629e-20  1.7680500565626614e-20  2.1726642164840771e-20  2.5533006197664284e-20  2.9058245969379182e-20  3.2264011358706962e-20  3.5115396720134989e-20  3.7581340480755741e-20  3.9634976671809701e-20  4.1253937019126674e-20  4.2420601664013702e-20  4.3122296575710812e-20  4.3351435992374911e-20  4.3105608662130198e-20  4.2387607183162457e-20  4.1205400326924781e-20  3.9572048852834062e-20  3.7505565979426708e-20  3.5028724370375295e-20  3.2168812245458701e-20  2.8957342088596305e-20  2.5429716510816027e-20  2.1624857376279652e-20  1.7584806817542333e-20  1.3354313251958568e-20  8.9804235985474975e-21  4.5121150484771691e-21  0.0000000000000000e+00  0.0000000000000000e+00  6.7593548231981693e-21  1.3438424519075626e-20  1.9965432595407378e-20  2.6269927874480682e-20  3.2283626268010292e-20  3.7941235803524600e-20  4.3181230580263828e-20  4.7946565315496970e-20  5.2185327676905821e-20  5.5851325718342753e-20  5.8904607079874696e-20  6.1311906261764545e-20  6.3047016341812527e-20  6.4091081881008265e-20  6.4432810352501756e-20  6.4068600160216531e-20  6.3002584137598673e-20  6.1246588302806431e-20  5.8820006574629361e-20  5.5749593113303091e-20  5.2069174941171754e-20  4.7819288530824716e-20  4.3046745151469999e-20  3.7804130991905895e-20  3.2149249513535206e-20  2.6144515209318807e-20  1.9856309842343027e-20  1.3354313251958570e-20  6.7108164249557260e-21  0.0000000000000000e+00  0.0000000000000000e+00  8.8921429481184286e-21  1.7680500565626608e-20  2.6269927874480676e-20  3.4567279541712139e-20  4.2482430871748465e-20  4.9929293570300118e-20  5.6826791196637863e-20  6.3099775262293070e-20  6.8679870426759887e-20  7.3506240302928493e-20  7.7526266714221494e-20  8.0696136064769982e-20  8.2981327251728946e-20  8.4356996403921432e-20  8.4808254695828695e-20  8.4330336546444985e-20  8.2928656646584165e-20  8.0618755444828177e-20  7.7426133943911723e-20  7.3385979902502878e-20  6.8542788792847112e-20  6.2949884127364769e-20  5.6668843033672541e-20  4.9768834217675643e-20  4.2325876664327549e-20  3.4422028429594208e-20  2.6144515209318810e-20  1.7584806817542339e-20  8.8376435985689658e-21  0.0000000000000000e+00  0.0000000000000000e+00  1.0926300692158005e-20  2.1726642164840765e-20  3.2283626268010280e-20  4.2482430871748453e-20  5.2212046371896240e-20  6.1366495003888208e-20  6.9846005450488365e-20  7.7558121986946005e-20  8.4418732548663648e-20  9.0353003341695353e-20  9.5296209680942506e-20  9.9194454256411133e-20  1.0200526534896387e-19  1.0369806881103645e-19  1.0425452896058902e-19  1.0366875492522421e-19  1.0194737041363067e-19  9.9109446370463552e-20  9.5186297472719103e-20  9.0221144934143744e-20  8.4268649582276226e-20  7.7394320641142188e-20  6.9673807064770936e-20  6.1192079576351075e-20  5.2042512682745625e-20  4.2325876664327561e-20  3.2149249513535224e-20  2.1624857376279664e-20  1.0868848477947916e-20  0.0000000000000000e+00  0.0000000000000000e+00  1.2839826544813174e-20  2.5533006197664248e-20  3.7941235803524564e-20  4.9929293570300063e-20  6.1366495003888172e-20  7.2128116608737161e-20  8.2096764695108524e-20  9.1163668914056236e-20  9.9229883093695806e-20  1.0620737854617579e-19  1.1202001714628767e-19  1.1660439330643282e-19  1.1991053565097438e-19  1.2190246083209110e-19  1.2255857358388334e-19  1.2187190880227137e-19  1.1985021316595053e-19  1.1651586556834969e-19  1.1190563739641163e-19  1.0607029544979020e-19  9.9074052021153265e-20  9.0993868327088320e-20  8.1918619052513693e-20  7.1948127194420473e-20  6.1192079576351063e-20  4.9768834217675637e-20  3.7804130991905877e-20  2.5429716510816024e-20  1.2781892994687530e-20  0.0000000000000000e+00  0.0000000000000000e+00  1.4611953855711383e-20  2.9058245969379134e-20  4.3181230580263810e-20  5.6826791196637815e-20  6.9846005450488317e-20  8.2096764695108512e-20  9.3445327436056620e-20  1.0376778637821937e-19  1.1295143059468326e-19  1.2089598632662944e-19  1.2751472191695108e-19  1.3273540430948311e-19  1.3650109643810189e-19  1.3877078672340927e-19  1.3951984381435858e-19  1.3874029166731398e-19  1.3644090204241752e-19  1.3264710350489882e-19  1.2740070802940216e-19  1.2075945829658925e-19  1.1279640071724340e-19  1.0359909108892299e-19  9.3268641545582815e-20  8.1918619052513681e-20  6.9673807064770900e-20  5.6668843033672505e-20  4.3046745151469939e-20  2.8957342088596275e-20  1.4555619753417895e-20  0.0000000000000000e+00  0.0000000000000000e+00  1.6223414282791581e-20  3.2264011358706944e-20  4.7946565315496970e-20  6.3099775262293034e-20  7.7558121986945969e-20  9.1163668914056211e-20  1.0376778637821934e-19  1.1523277857308536e-19  1.2543339374165804e-19  1.3425819982954300e-19  1.4161080968775965e-19  1.4741094187595960e-19  1.5159530514364422e-19  1.5411829674809266e-19  1.5495250690096076e-19  1.5408902381537166e-19  1.5153753604071296e-19  1.4732623100689919e-19  1.4150149093279307e-19  1.3412738946041608e-19  1.2528499452977559e-19  1.1507148507731604e-19  1.0359909108892307e-19  9.0993868327088308e-20  7.7394320641142176e-20  6.2949884127364733e-20  4.7819288530824674e-20  3.2168812245458677e-20  1.6170448280798262e-20  0.0000000000000000e+00  0.0000000000000000e+00  1.7656667572936378e-20  3.5115396720134959e-20  5.2185327676905803e-20  6.8679870426759851e-20  8.4418732548663612e-20  9.9229883093695806e-20  1.1295143059468328e-19  1.2543339374165813e-19  1.3653934432389738e-19  1.4614790355442343e-19  1.5415407469706001e-19  1.6047039690873861e-19  1.6502790733433716e-19  1.6777690071663479e-19  1.6868747808949111e-19  1.6774987849023546e-19  1.6497459003848541e-19  1.6039223916173639e-19  1.5405325917896776e-19  1.4602734185560289e-19  1.3640267788770735e-19  1.2528499452977586e-19  1.1279640071724367e-19  9.9074052021153446e-20  8.4268649582276346e-20  6.8542788792847220e-20  5.2069174941171845e-20  3.5028724370375355e-20  1.7608571051733334e-20  0.0000000000000000e+00  0.0000000000000000e+00  1.8896104399459330e-20  3.7581340480755693e-20  5.5851325718342668e-20  7.3506240302928421e-20  9.0353003341695280e-20  1.0620737854617576e-19  1.2089598632662948e-19  1.3425819982954312e-19  1.4614790355442353e-19  1.5643509468487986e-19  1.6500730907349116e-19  1.7177085585340551e-19  1.7665184685658379e-19  1.7959700935968638e-19  1.8057427312366690e-19  1.7957312521610563e-19  1.7660472868098132e-19  1.7170180372308932e-19  1.6491827267648588e-19  1.5632867259971085e-19  1.4602734185560318e-19  1.3412738946041658e-19  1.2075945829658973e-19  1.0607029544979055e-19  9.0221144934144020e-20  7.3385979902503070e-20  5.5749593113303260e-20  3.7505565979426834e-20  1.8854138017141798e-20  0.0000000000000000e+00  0.0000000000000000e+00  1.9928223980864824e-20  3.9634976671809647e-20  5.8904607079874600e-20  7.7526266714221410e-20  9.5296209680942421e-20  1.1202001714628757e-19  1.2751472191695106e-19  1.4161080968775967e-19  1.5415407469706006e-19  1.6500730907349113e-19  1.7405180699974010e-19  1.8118866690394819e-19  1.8633987716969673e-19  1.8944917329111689e-19  1.9048265695672234e-19  1.8942917019347388e-19  1.8630042041210756e-19  1.8113085493674899e-19  1.7397728634675866e-19  1.6491827267648610e-19  1.5405325917896843e-19  1.4150149093279389e-19  1.2740070802940293e-19  1.1190563739641213e-19  9.5186297472719488e-20  7.7426133943912048e-20  5.8820006574629590e-20  3.9572048852834255e-20  1.9893423709264378e-20  0.0000000000000000e+00  0.0000000000000000e+00  2.0741786384928255e-20  4.1253937019126584e-20  6.1311906261764401e-20  8.0696136064769778e-20  9.9194454256410904e-20  1.1660439330643265e-19  1.3273540430948301e-19  1.4741094187595956e-19  1.6047039690873858e-19  1.7177085585340544e-19  1.8118866690394810e-19  1.8862079578478764e-19  1.9398595607339403e-19  1.9722550153837005e-19  1.9830407061142023e-19  1.9720997585567536e-19  1.9395533410593713e-19  1.8857593580737360e-19  1.8113085493674892e-19  1.7170180372308954e-19  1.6039223916173692e-19  1.4732623100689996e-19  1.3264710350489954e-19  1.1651586556835019e-19  9.9109446370463865e-20  8.0618755444828466e-20  6.1246588302806683e-20  4.1205400326924968e-20  2.0714973262665495e-20  0.0000000000000000e+00  0.0000000000000000e+00  2.1327938790958268e-20  4.2420601664013599e-20  6.3047016341812347e-20  8.2981327251728717e-20  1.0200526534896355e-19  1.1991053565097410e-19  1.3650109643810184e-19  1.5159530514364432e-19  1.6502790733433719e-19  1.7665184685658365e-19  1.8633987716969664e-19  1.9398595607339400e-19  1.9950640842911925e-19  2.0284084403969738e-19  2.0395282055631085e-19  2.0283024409325433e-19  1.9948550311714049e-19  1.9395533410593701e-19  1.8630042041210741e-19  1.7660472868098151e-19  1.6497459003848589e-19  1.5153753604071373e-19  1.3644090204241822e-19  1.1985021316595104e-19  1.0194737041363102e-19  8.2928656646584466e-20  6.3002584137598889e-20  4.2387607183162637e-20  2.1309724818450426e-20  0.0000000000000000e+00  0.0000000000000000e+00  2.1680314842940169e-20  4.3122296575710662e-20  6.4091081881008012e-20  8.4356996403921155e-20  1.0369806881103612e-19  1.2190246083209086e-19  1.3877078672340912e-19  1.5411829674809261e-19  1.6777690071663491e-19  1.7959700935968626e-19  1.8944917329111667e-19  1.9722550153836981e-19  2.0284084403969724e-19  2.0623372510398302e-19  2.0736701756751566e-19  2.0622835023160472e-19  2.0283024409325412e-19  1.9720997585567512e-19  1.8942917019347376e-19  1.7957312521610577e-19  1.6774987849023594e-19  1.5408902381537233e-19  1.3874029166731454e-19  1.2187190880227180e-19  1.0366875492522453e-19  8.4330336546445214e-20  6.4068600160216712e-20  4.3105608662130336e-20  2.1671106459003031e-20  0.0000000000000000e+00  0.0000000000000000e+00  2.1795106309283866e-20  4.3351435992374742e-20  6.4432810352501491e-20  8.4808254695828382e-20  1.0425452896058866e-19  1.2255857358388313e-19  1.3951984381435841e-19  1.5495250690096059e-19  1.6868747808949084e-19  1.8057427312366666e-19  1.9048265695672183e-19  1.9830407061141984e-19  2.0395282055631059e-19  2.0736701756751547e-19  2.0850925478974448e-19  2.0736701756751554e-19  2.0395282055631059e-19  1.9830407061141987e-19  1.9048265695672210e-19  1.8057427312366710e-19  1.6868747808949152e-19  1.5495250690096143e-19  1.3951984381435919e-19  1.2255857358388380e-19  1.0425452896058933e-19  8.4808254695828911e-20  6.4432810352501913e-20  4.3351435992375037e-20  2.1795106309284019e-20  0.0000000000000000e+00  0.0000000000000000e+00  2.1671106459002871e-20  4.3105608662130042e-20  6.4068600160216315e-20  8.4330336546444709e-20  1.0366875492522390e-19  1.2187190880227115e-19  1.3874029166731377e-19  1.5408902381537139e-19  1.6774987849023503e-19  1.7957312521610517e-19  1.8942917019347342e-19  1.9720997585567495e-19  2.0283024409325390e-19  2.0622835023160443e-19  2.0736701756751533e-19  2.0623372510398290e-19  2.0284084403969716e-19  1.9722550153836959e-19  1.8944917329111667e-19  1.7959700935968645e-19  1.6777690071663518e-19  1.5411829674809329e-19  1.3877078672340984e-19  1.2190246083209154e-19  1.0369806881103679e-19  8.4356996403921708e-20  6.4091081881008457e-20  4.3122296575710951e-20  2.1680314842940307e-20  0.0000000000000000e+00  0.0000000000000000e+00  2.1309724818450257e-20  4.2387607183162312e-20  6.3002584137598432e-20  8.2928656646583900e-20  1.0194737041363040e-19  1.1985021316595031e-19  1.3644090204241737e-19  1.5153753604071272e-19  1.6497459003848496e-19  1.7660472868098077e-19  1.8630042041210696e-19  1.9395533410593667e-19  1.9948550311714015e-19  2.0283024409325378e-19  2.0395282055631032e-19  2.0284084403969704e-19  1.9950640842911896e-19  1.9398595607339367e-19  1.8633987716969647e-19  1.7665184685658384e-19  1.6502790733433750e-19  1.5159530514364480e-19  1.3650109643810245e-19  1.1991053565097482e-19  1.0200526534896422e-19  8.2981327251729247e-20  6.3047016341812756e-20  4.2420601664013852e-20  2.1327938790958379e-20  0.0000000000000000e+00  0.0000000000000000e+00  2.0714973262665330e-20  4.1205400326924661e-20  6.1246588302806250e-20  8.0618755444827924e-20  9.9109446370463227e-20  1.1651586556834947e-19  1.3264710350489862e-19  1.4732623100689891e-19  1.6039223916173598e-19  1.7170180372308877e-19  1.8113085493674837e-19  1.8857593580737307e-19  1.9395533410593652e-19  1.9720997585567471e-19  1.9830407061141955e-19  1.9722550153836942e-19  1.9398595607339355e-19  1.8862079578478718e-19  1.8118866690394791e-19  1.7177085585340556e-19  1.6047039690873892e-19  1.4741094187596018e-19  1.3273540430948366e-19  1.1660439330643326e-19  9.9194454256411482e-20  8.0696136064770235e-20  6.1311906261764738e-20  4.1253937019126795e-20  2.0741786384928360e-20  0.0000000000000000e+00  0.0000000000000000e+00  1.9893423709264218e-20  3.9572048852833930e-20  5.8820006574629168e-20  7.7426133943911519e-20  9.5186297472718850e-20  1.1190563739641144e-19  1.2740070802940206e-19  1.4150149093279281e-19  1.5405325917896747e-19  1.6491827267648535e-19  1.7397728634675779e-19  1.8113085493674837e-19  1.8630042041210674e-19  1.8942917019347320e-19  1.9048265695672162e-19  1.8944917329111631e-19  1.8633987716969620e-19  1.8118866690394776e-19  1.7405180699973988e-19  1.6500730907349125e-19  1.5415407469706035e-19  1.4161080968776027e-19  1.2751472191695178e-19  1.1202001714628813e-19  9.5296209680942903e-20  7.7526266714221783e-20  5.8904607079874876e-20  3.9634976671809821e-20  1.9928223980864918e-20  0.0000000000000000e+00  0.0000000000000000e+00  1.8854138017141672e-20  3.7505565979426599e-20  5.5749593113302947e-20  7.3385979902502673e-20  9.0221144934143563e-20  1.0607029544978996e-19  1.2075945829658898e-19  1.3412738946041569e-19  1.4602734185560239e-19  1.5632867259971023e-19  1.6491827267648543e-19  1.7170180372308889e-19  1.7660472868098077e-19  1.7957312521610515e-19  1.8057427312366654e-19  1.7959700935968595e-19  1.7665184685658336e-19  1.7177085585340515e-19  1.6500730907349101e-19  1.5643509468488003e-19  1.4614790355442391e-19  1.3425819982954387e-19  1.2089598632663023e-19  1.0620737854617630e-19  9.0353003341695750e-20  7.3506240302928806e-20  5.5851325718342981e-20  3.7581340480755891e-20  1.8896104399459429e-20  0.0000000000000000e+00  0.0000000000000000e+00  1.7608571051733241e-20  3.5028724370375168e-20  5.2069174941171598e-20  6.8542788792846895e-20  8.4268649582275937e-20  9.9074052021152916e-20  1.1279640071724309e-19  1.2528499452977521e-19  1.3640267788770672e-19  1.4602734185560234e-19  1.5405325917896751e-19  1.6039223916173618e-19  1.6497459003848500e-19  1.6774987849023524e-19  1.6868747808949084e-19  1.6777690071663450e-19  1.6502790733433695e-19  1.6047039690873841e-19  1.5415407469706004e-19  1.4614790355442374e-19  1.3653934432389791e-19  1.2543339374165878e-19  1.1295143059468393e-19  9.9229883093696300e-20  8.4418732548664045e-20  6.8679870426760224e-20  5.2185327676906098e-20  3.5115396720135164e-20  1.7656667572936474e-20  0.0000000000000000e+00  0.0000000000000000e+00  1.6170448280798190e-20  3.2168812245458544e-20  4.7819288530824500e-20  6.2949884127364492e-20  7.7394320641141887e-20  9.0993868327087947e-20  1.0359909108892256e-19  1.1507148507731549e-19  1.2528499452977516e-19  1.3412738946041576e-19  1.4150149093279300e-19  1.4732623100689915e-19  1.5153753604071289e-19  1.5408902381537154e-19  1.5495250690096061e-19  1.5411829674809254e-19  1.5159530514364415e-19  1.4741094187595951e-19  1.4161080968775970e-19  1.3425819982954339e-19  1.2543339374165854e-19  1.1523277857308598e-19  1.0376778637821992e-19  9.1163668914056645e-20  7.7558121986946379e-20  6.3099775262293383e-20  4.7946565315497223e-20  3.2264011358707143e-20  1.6223414282791678e-20  0.0000000000000000e+00  0.0000000000000000e+00  1.4555619753417820e-20  2.8957342088596136e-20  4.3046745151469759e-20  5.6668843033672240e-20  6.9673807064770599e-20  8.1918619052513320e-20  9.3268641545582322e-20  1.0359909108892246e-19  1.1279640071724297e-19  1.2075945829658898e-19  1.2740070802940221e-19  1.3264710350489877e-19  1.3644090204241742e-19  1.3874029166731384e-19  1.3951984381435841e-19  1.3877078672340912e-19  1.3650109643810180e-19  1.3273540430948299e-19  1.2751472191695108e-19  1.2089598632662970e-19  1.1295143059468364e-19  1.0376778637821984e-19  9.3445327436057065e-20  8.2096764695108849e-20  6.9846005450488642e-20  5.6826791196638092e-20  4.3181230580264015e-20  2.9058245969379278e-20  1.4611953855711459e-20  0.0000000000000000e+00  0.0000000000000000e+00  1.2781892994687459e-20  2.5429716510815892e-20  3.7804130991905690e-20  4.9768834217675384e-20  6.1192079576350775e-20  7.1948127194420136e-20  8.1918619052513272e-20  9.0993868327087827e-20  9.9074052021152856e-20  1.0607029544978996e-19  1.1190563739641153e-19  1.1651586556834959e-19  1.1985021316595043e-19  1.2187190880227120e-19  1.2255857358388318e-19  1.2190246083209093e-19  1.1991053565097429e-19  1.1660439330643270e-19  1.1202001714628762e-19  1.0620737854617594e-19  9.9229883093696095e-20  9.1163668914056597e-20  8.2096764695108849e-20  7.2128116608737462e-20  6.1366495003888425e-20  4.9929293570300280e-20  3.7941235803524738e-20  2.5533006197664365e-20  1.2839826544813231e-20  0.0000000000000000e+00  0.0000000000000000e+00  1.0868848477947848e-20  2.1624857376279553e-20  3.2149249513535050e-20  4.2325876664327344e-20  5.2042512682745384e-20  6.1192079576350787e-20  6.9673807064770575e-20  7.7394320641141815e-20  8.4268649582275877e-20  9.0221144934143575e-20  9.5186297472718958e-20  9.9109446370463408e-20  1.0194737041363061e-19  1.0366875492522406e-19  1.0425452896058881e-19  1.0369806881103624e-19  1.0200526534896378e-19  9.9194454256411037e-20  9.5296209680942494e-20  9.0353003341695509e-20  8.4418732548663913e-20  7.7558121986946318e-20  6.9846005450488642e-20  6.1366495003888437e-20  5.2212046371896427e-20  4.2482430871748603e-20  3.2283626268010401e-20  2.1726642164840846e-20  1.0926300692158056e-20  0.0000000000000000e+00  0.0000000000000000e+00  8.8376435985689131e-21  1.7584806817542252e-20  2.6144515209318678e-20  3.4422028429594045e-20  4.2325876664327356e-20  4.9768834217675432e-20  5.6668843033672264e-20  6.2949884127364468e-20  6.8542788792846895e-20  7.3385979902502721e-20  7.7426133943911627e-20  8.0618755444828081e-20  8.2928656646584032e-20  8.4330336546444853e-20  8.4808254695828550e-20  8.4356996403921311e-20  8.2981327251728886e-20  8.0696136064769886e-20  7.7526266714221494e-20  7.3506240302928601e-20  6.8679870426760104e-20  6.3099775262293347e-20  5.68267911966