<?xml version="1.0"?>
<VTKFile type="UnstructuredGrid"  version="0.1"  >
<UnstructuredGrid>
<Piece  NumberOfPoints="961" NumberOfCells="1800">
<Points>
<DataArray  type="Float64"  NumberOfComponents="3"  format="ascii">-2 -2 0  -1.866666666666667 -2 0  -1.733333333333333 -2 0  -1.6 -2 0  -1.466666666666667 -2 0  -1.333333333333333 -2 0  -1.2 -2 0  -1.066666666666667 -2 0  -0.9333333333333333 -2 0  -0.8 -2 0  -0.6666666666666667 -2 0  -0.5333333333333334 -2 0  -0.3999999999999999 -2 0  -0.2666666666666666 -2 0  -0.1333333333333333 -2 0  0 -2 0  0.1333333333333333 -2 0  0.2666666666666666 -2 0  0.3999999999999999 -2 0  0.5333333333333332 -2 0  0.6666666666666665 -2 0  0.7999999999999998 -2 0  0.9333333333333331 -2 0  1.066666666666667 -2 0  1.2 -2 0  1.333333333333333 -2 0  1.466666666666667 -2 0  1.6 -2 0  1.733333333333333 -2 0  1.866666666666667 -2 0  2 -2 0  -2 -1.866666666666667 0  -1.866666666666667 -1.866666666666667 0  -1.733333333333333 -1.866666666666667 0  -1.6 -1.866666666666667 0  -1.466666666666667 -1.866666666666667 0  -1.333333333333333 -1.866666666666667 0  -1.2 -1.866666666666667 0  -1.066666666666667 -1.866666666666667 0  -0.9333333333333333 -1.866666666666667 0  -0.8 -1.866666666666667 0  -0.6666666666666667 -1.866666666666667 0  -0.5333333333333334 -1.866666666666667 0  -0.3999999999999999 -1.866666666666667 0  -0.2666666666666666 -1.866666666666667 0  -0.1333333333333333 -1.866666666666667 0  0 -1.866666666666667 0  0.1333333333333333 -1.866666666666667 0  0.2666666666666666 -1.866666666666667 0  0.3999999999999999 -1.866666666666667 0  0.5333333333333332 -1.866666666666667 0  0.6666666666666665 -1.866666666666667 0  0.7999999999999998 -1.866666666666667 0  0.9333333333333331 -1.866666666666667 0  1.066666666666667 -1.866666666666667 0  1.2 -1.866666666666667 0  1.333333333333333 -1.866666666666667 0  1.466666666666667 -1.866666666666667 0  1.6 -1.866666666666667 0  1.733333333333333 -1.866666666666667 0  1.866666666666667 -1.866666666666667 0  2 -1.866666666666667 0  -2 -1.733333333333333 0  -1.866666666666667 -1.733333333333333 0  -1.733333333333333 -1.733333333333333 0  -1.6 -1.733333333333333 0  -1.466666666666667 -1.733333333333333 0  -1.333333333333333 -1.733333333333333 0  -1.2 -1.733333333333333 0  -1.066666666666667 -1.733333333333333 0  -0.9333333333333333 -1.733333333333333 0  -0.8 -1.733333333333333 0  -0.6666666666666667 -1.733333333333333 0  -0.5333333333333334 -1.733333333333333 0  -0.3999999999999999 -1.733333333333333 0  -0.2666666666666666 -1.733333333333333 0  -0.1333333333333333 -1.733333333333333 0  0 -1.733333333333333 0  0.1333333333333333 -1.733333333333333 0  0.2666666666666666 -1.733333333333333 0  0.3999999999999999 -1.733333333333333 0  0.5333333333333332 -1.733333333333333 0  0.6666666666666665 -1.733333333333333 0  0.7999999999999998 -1.733333333333333 0  0.9333333333333331 -1.733333333333333 0  1.066666666666667 -1.733333333333333 0  1.2 -1.733333333333333 0  1.333333333333333 -1.733333333333333 0  1.466666666666667 -1.733333333333333 0  1.6 -1.733333333333333 0  1.733333333333333 -1.733333333333333 0  1.866666666666667 -1.733333333333333 0  2 -1.733333333333333 0  -2 -1.6 0  -1.866666666666667 -1.6 0  -1.733333333333333 -1.6 0  -1.6 -1.6 0  -1.466666666666667 -1.6 0  -1.333333333333333 -1.6 0  -1.2 -1.6 0  -1.066666666666667 -1.6 0  -0.9333333333333333 -1.6 0  -0.8 -1.6 0  -0.6666666666666667 -1.6 0  -0.5333333333333334 -1.6 0  -0.3999999999999999 -1.6 0  -0.2666666666666666 -1.6 0  -0.1333333333333333 -1.6 0  0 -1.6 0  0.1333333333333333 -1.6 0  0.2666666666666666 -1.6 0  0.3999999999999999 -1.6 0  0.5333333333333332 -1.6 0  0.6666666666666665 -1.6 0  0.7999999999999998 -1.6 0  0.9333333333333331 -1.6 0  1.066666666666667 -1.6 0  1.2 -1.6 0  1.333333333333333 -1.6 0  1.466666666666667 -1.6 0  1.6 -1.6 0  1.733333333333333 -1.6 0  1.866666666666667 -1.6 0  2 -1.6 0  -2 -1.466666666666667 0  -1.866666666666667 -1.466666666666667 0  -1.733333333333333 -1.466666666666667 0  -1.6 -1.466666666666667 0  -1.466666666666667 -1.466666666666667 0  -1.333333333333333 -1.466666666666667 0  -1.2 -1.466666666666667 0  -1.066666666666667 -1.466666666666667 0  -0.9333333333333333 -1.466666666666667 0  -0.8 -1.466666666666667 0  -0.6666666666666667 -1.466666666666667 0  -0.5333333333333334 -1.466666666666667 0  -0.3999999999999999 -1.466666666666667 0  -0.2666666666666666 -1.466666666666667 0  -0.1333333333333333 -1.466666666666667 0  0 -1.466666666666667 0  0.1333333333333333 -1.466666666666667 0  0.2666666666666666 -1.466666666666667 0  0.3999999999999999 -1.466666666666667 0  0.5333333333333332 -1.466666666666667 0  0.6666666666666665 -1.466666666666667 0  0.7999999999999998 -1.466666666666667 0  0.9333333333333331 -1.466666666666667 0  1.066666666666667 -1.466666666666667 0  1.2 -1.466666666666667 0  1.333333333333333 -1.466666666666667 0  1.466666666666667 -1.466666666666667 0  1.6 -1.466666666666667 0  1.733333333333333 -1.466666666666667 0  1.866666666666667 -1.466666666666667 0  2 -1.466666666666667 0  -2 -1.333333333333333 0  -1.866666666666667 -1.333333333333333 0  -1.733333333333333 -1.333333333333333 0  -1.6 -1.333333333333333 0  -1.466666666666667 -1.333333333333333 0  -1.333333333333333 -1.333333333333333 0  -1.2 -1.333333333333333 0  -1.066666666666667 -1.333333333333333 0  -0.9333333333333333 -1.333333333333333 0  -0.8 -1.333333333333333 0  -0.6666666666666667 -1.333333333333333 0  -0.5333333333333334 -1.333333333333333 0  -0.3999999999999999 -1.333333333333333 0  -0.2666666666666666 -1.333333333333333 0  -0.1333333333333333 -1.333333333333333 0  0 -1.333333333333333 0  0.1333333333333333 -1.333333333333333 0  0.2666666666666666 -1.333333333333333 0  0.3999999999999999 -1.333333333333333 0  0.5333333333333332 -1.333333333333333 0  0.6666666666666665 -1.333333333333333 0  0.7999999999999998 -1.333333333333333 0  0.9333333333333331 -1.333333333333333 0  1.066666666666667 -1.333333333333333 0  1.2 -1.333333333333333 0  1.333333333333333 -1.333333333333333 0  1.466666666666667 -1.333333333333333 0  1.6 -1.333333333333333 0  1.733333333333333 -1.333333333333333 0  1.866666666666667 -1.333333333333333 0  2 -1.333333333333333 0  -2 -1.2 0  -1.866666666666667 -1.2 0  -1.733333333333333 -1.2 0  -1.6 -1.2 0  -1.466666666666667 -1.2 0  -1.333333333333333 -1.2 0  -1.2 -1.2 0  -1.066666666666667 -1.2 0  -0.9333333333333333 -1.2 0  -0.8 -1.2 0  -0.6666666666666667 -1.2 0  -0.5333333333333334 -1.2 0  -0.3999999999999999 -1.2 0  -0.2666666666666666 -1.2 0  -0.1333333333333333 -1.2 0  0 -1.2 0  0.1333333333333333 -1.2 0  0.2666666666666666 -1.2 0  0.3999999999999999 -1.2 0  0.5333333333333332 -1.2 0  0.6666666666666665 -1.2 0  0.7999999999999998 -1.2 0  0.9333333333333331 -1.2 0  1.066666666666667 -1.2 0  1.2 -1.2 0  1.333333333333333 -1.2 0  1.466666666666667 -1.2 0  1.6 -1.2 0  1.733333333333333 -1.2 0  1.866666666666667 -1.2 0  2 -1.2 0  -2 -1.066666666666667 0  -1.866666666666667 -1.066666666666667 0  -1.733333333333333 -1.066666666666667 0  -1.6 -1.066666666666667 0  -1.466666666666667 -1.066666666666667 0  -1.333333333333333 -1.066666666666667 0  -1.2 -1.066666666666667 0  -1.066666666666667 -1.066666666666667 0  -0.9333333333333333 -1.066666666666667 0  -0.8 -1.066666666666667 0  -0.6666666666666667 -1.066666666666667 0  -0.5333333333333334 -1.066666666666667 0  -0.3999999999999999 -1.066666666666667 0  -0.2666666666666666 -1.066666666666667 0  -0.1333333333333333 -1.066666666666667 0  0 -1.066666666666667 0  0.1333333333333333 -1.066666666666667 0  0.2666666666666666 -1.066666666666667 0  0.3999999999999999 -1.066666666666667 0  0.5333333333333332 -1.066666666666667 0  0.6666666666666665 -1.066666666666667 0  0.7999999999999998 -1.066666666666667 0  0.9333333333333331 -1.066666666666667 0  1.066666666666667 -1.066666666666667 0  1.2 -1.066666666666667 0  1.333333333333333 -1.066666666666667 0  1.466666666666667 -1.066666666666667 0  1.6 -1.066666666666667 0  1.733333333333333 -1.066666666666667 0  1.866666666666667 -1.066666666666667 0  2 -1.066666666666667 0  -2 -0.9333333333333333 0  -1.866666666666667 -0.9333333333333333 0  -1.733333333333333 -0.9333333333333333 0  -1.6 -0.9333333333333333 0  -1.466666666666667 -0.9333333333333333 0  -1.333333333333333 -0.9333333333333333 0  -1.2 -0.9333333333333333 0  -1.066666666666667 -0.9333333333333333 0  -0.9333333333333333 -0.9333333333333333 0  -0.8 -0.9333333333333333 0  -0.6666666666666667 -0.9333333333333333 0  -0.5333333333333334 -0.9333333333333333 0  -0.3999999999999999 -0.9333333333333333 0  -0.2666666666666666 -0.9333333333333333 0  -0.1333333333333333 -0.9333333333333333 0  0 -0.9333333333333333 0  0.1333333333333333 -0.9333333333333333 0  0.2666666666666666 -0.9333333333333333 0  0.3999999999999999 -0.9333333333333333 0  0.5333333333333332 -0.9333333333333333 0  0.6666666666666665 -0.9333333333333333 0  0.7999999999999998 -0.9333333333333333 0  0.9333333333333331 -0.9333333333333333 0  1.066666666666667 -0.9333333333333333 0  1.2 -0.9333333333333333 0  1.333333333333333 -0.9333333333333333 0  1.466666666666667 -0.9333333333333333 0  1.6 -0.9333333333333333 0  1.733333333333333 -0.9333333333333333 0  1.866666666666667 -0.9333333333333333 0  2 -0.9333333333333333 0  -2 -0.8 0  -1.866666666666667 -0.8 0  -1.733333333333333 -0.8 0  -1.6 -0.8 0  -1.466666666666667 -0.8 0  -1.333333333333333 -0.8 0  -1.2 -0.8 0  -1.066666666666667 -0.8 0  -0.9333333333333333 -0.8 0  -0.8 -0.8 0  -0.6666666666666667 -0.8 0  -0.5333333333333334 -0.8 0  -0.3999999999999999 -0.8 0  -0.2666666666666666 -0.8 0  -0.1333333333333333 -0.8 0  0 -0.8 0  0.1333333333333333 -0.8 0  0.2666666666666666 -0.8 0  0.3999999999999999 -0.8 0  0.5333333333333332 -0.8 0  0.6666666666666665 -0.8 0  0.7999999999999998 -0.8 0  0.9333333333333331 -0.8 0  1.066666666666667 -0.8 0  1.2 -0.8 0  1.333333333333333 -0.8 0  1.466666666666667 -0.8 0  1.6 -0.8 0  1.733333333333333 -0.8 0  1.866666666666667 -0.8 0  2 -0.8 0  -2 -0.6666666666666667 0  -1.866666666666667 -0.
[...]
<PointData  Scalars="f_10422"> 
<DataArray  type="Float64"  Name="f_10422"  format="ascii">0.0000000000000000e+00  0.0000000000000000e+00  0.0000000000000000e+00  0.0000000000000000e+00  0.0000000000000000e+00  0.0000000000000000e+00  0.0000000000000000e+00  0.0000000000000000e+00  0.0000000000000000e+00  0.0000000000000000e+00  0.0000000000000000e+00  0.0000000000000000e+00  0.0000000000000000e+00  0.0000000000000000e+00  0.0000000000000000e+00  0.0000000000000000e+00  0.0000000000000000e+00  0.0000000000000000e+00  0.0000000000000000e+00  0.0000000000000000e+00  0.0000000000000000e+00  0.0000000000000000e+00  0.0000000000000000e+00  0.0000000000000000e+00  0.0000000000000000e+00  0.0000000000000000e+00  0.0000000000000000e+00  0.0000000000000000e+00  0.0000000000000000e+00  0.0000000000000000e+00  0.0000000000000000e+00  0.0000000000000000e+00  5.6435354423261485e-22  1.1215059163550162e-21  1.6657655139651003e-21  2.1913666992873258e-21  2.6926615578375911e-21  3.1642280695546810e-21  3.6009485315015588e-21  3.9980744816495020e-21  4.3512833256809496e-21  4.6567283239631129e-21  4.9110823636553092e-21  5.1115754923036768e-21  5.2560260337283520e-21  5.3428650724668054e-21  5.3711541134972589e-21  5.3405957718007952e-21  5.2515374089897948e-21  5.1049677056797249e-21  4.9025062356334603e-21  4.6463861900998863e-21  4.3394304893589366e-21  3.9850216176053953e-21  3.5870656377468714e-21  3.1499510102161653e-21  2.6785031182179287e-21  2.1779359593147073e-21  1.6538037821119534e-21  1.1119590315041341e-21  5.5853392179571185e-22  0.0000000000000000e+00  0.0000000000000000e+00  1.1215059163550166e-21  2.2293297786322772e-21  3.3117456786071924e-21  4.3571566935328198e-21  5.3542819099009656e-21  6.2923166935927224e-21  7.1610716256503439e-21  7.9510957582906405e-21  8.6537869952990248e-21  9.2614905680900040e-21  9.7675856666263104e-21  1.0166559886145327e-20  1.0454071014447904e-20  1.0626995681935142e-20  1.0683464464556107e-20  1.0622883136926079e-20  1.0445939902856516e-20  1.0154598574726317e-20  9.7520778269788166e-21  9.2428168108375195e-21  8.6324275882224032e-21  7.9276350280942025e-21  7.1362050208885252e-21  6.2668621342744910e-21  5.3291982155150108e-21  4.3335740662510309e-21  3.2910174209902589e-21  2.2131224536280291e-21  1.1119590315041343e-21  0.0000000000000000e+00  0.0000000000000000e+00  1.6657655139651003e-21  3.3117456786071924e-21  4.9202520001884636e-21  6.4739225935406254e-21  7.9559296278435277e-21  9.3501826449208010e-21  1.0641519291799113e-20  1.1815881412457183e-20  1.2860475807664175e-20  1.3763919001788410e-20  1.4516365193696687e-20  1.5109616482299889e-20  1.5537214472030753e-20  1.5794512456084319e-20  1.5878727520664181e-20  1.5788972093702243e-20  1.5526264664626809e-20  1.5093519620051789e-20  1.4495516368951160e-20  1.3738848167433145e-20  1.2831851297396643e-20  1.1784515507843359e-20  1.0608376899473921e-20  9.3163947357243013e-21  7.9228140170584697e-21  6.4430160798118094e-21  4.8933599485654777e-21  3.2910174209902596e-21  1.6538037821119538e-21  0.0000000000000000e+00  0.0000000000000000e+00  2.1913666992873254e-21  4.3571566935328191e-21  6.4739225935406246e-21  8.5187097997218509e-21  1.0469308113948403e-20  1.2304502062919293e-20  1.4004311287192757e-20  1.5550216303209789e-20  1.6925366792086520e-20  1.8114770323584776e-20  1.9105459751247103e-20  1.9886637716605084e-20  2.0449796889576601e-20  2.0788814782894347e-20  2.0900022216179262e-20  2.0782244766620145e-20  2.0436816822699692e-20  1.9867568149831366e-20  1.9080783177822175e-20  1.8085133526440014e-20  1.6891584594769973e-20  1.5513277351202756e-20  1.3965386772983377e-20  1.2264958694804085e-20  1.0430727124104101e-20  8.4829143281480360e-21  6.4430160798118102e-21  4.3335740662510316e-21  2.1779359593147088e-21  0.0000000000000000e+00  0.0000000000000000e+00  2.6926615578375903e-21  5.3542819099009641e-21  7.9559296278435262e-21  1.0469308113948405e-20  1.2867060323769233e-20  1.5123069252047707e-20  1.7212747401325598e-20  1.9113310118054352e-20  2.0804028948087121e-20  2.2266461960722704e-20  2.3484658499255002e-20  2.4445336189458688e-20  2.5138028363003963e-20  2.5555200371693846e-20  2.5692333596870794e-20  2.5547976300559318e-20  2.5123760819838422e-20  2.4424386970408885e-20  2.3457571895457558e-20  2.2233966967669225e-20  2.0767042721415932e-20  1.9072943154029232e-20  1.7170311083068697e-20  1.5080086569248199e-20  1.2825280689435915e-20  1.0430727124104100e-20  7.9228140170584727e-21  5.3291982155150138e-21  2.6785031182179310e-21  0.0000000000000000e+00  0.0000000000000000e+00  3.1642280695546787e-21  6.2923166935927134e-21  9.3501826449207905e-21  1.2304502062919279e-20  1.5123069252047695e-20  1.7775147536527722e-20  2.0231806587202435e-20  2.2466241198404229e-20  2.4454067220288160e-20  2.6173590991802514e-20  2.7606049144757928e-20  2.8735816098906429e-20  2.9550576981542176e-20  3.0041464109070265e-20  3.0203155575755414e-20  3.0033934911537881e-20  2.9535711196582265e-20  2.8713999452645749e-20  2.7577861566531441e-20  2.6139808434076291e-20  2.4415664438745347e-20  2.2424395790163279e-20  2.0187904635661274e-20  1.7730791208580783e-20  1.5080086569248199e-20  1.2264958694804084e-20  9.3163947357242998e-21  6.2668621342744902e-21  3.1499510102161665e-21  0.0000000000000000e+00  0.0000000000000000e+00  3.6009485315015543e-21  7.1610716256503334e-21  1.0641519291799102e-20  1.4004311287192739e-20  1.7212747401325586e-20  2.0231806587202438e-20  2.3028529786591497e-20  2.5572381466956410e-20  2.7835585312360183e-20  2.9793430004375952e-20  3.1424541520311241e-20  3.2711118851478764e-20  3.3639130510599684e-20  3.4198469664045358e-20  3.4383066197698553e-20  3.4190954507034259e-20  3.3624296291789217e-20  3.2689358130377526e-20  3.1396444104661410e-20  2.9759784236387842e-20  2.7797379976166358e-20  2.5530808446656623e-20  2.2984987574227462e-20  2.0187904635661259e-20  1.7170311083068688e-20  1.3965386772983371e-20  1.0608376899473910e-20  7.1362050208885176e-21  3.5870656377468692e-21  0.0000000000000000e+00  0.0000000000000000e+00  3.9980744816494998e-21  7.9510957582906360e-21  1.1815881412457180e-20  1.5550216303209783e-20  1.9113310118054337e-20  2.2466241198404229e-20  2.5572381466956410e-20  2.8397797370637387e-20  3.0911622049691303e-20  3.3086394351653826e-20  3.4898360768540632e-20  3.6327736859640864e-20  3.7358925221774140e-20  3.7980687581739320e-20  3.8186269111396276e-20  3.7973473603024674e-20  3.7344688688561653e-20  3.6306860836998222e-20  3.4871420414495646e-20  3.3054157635656468e-20  3.0875050765017066e-20  2.8358048437505891e-20  2.5530808446656632e-20  2.2424395790163276e-20  1.9072943154029223e-20  1.5513277351202747e-20  1.1784515507843351e-20  7.9276350280941980e-21  3.9850216176053930e-21  0.0000000000000000e+00  0.0000000000000000e+00  4.3512833256809489e-21  8.6537869952990173e-21  1.2860475807664167e-20  1.6925366792086520e-20  2.0804028948087109e-20  2.4454067220288142e-20  2.7835585312360165e-20  3.0911622049691303e-20  3.3648556263619983e-20  3.6016475543455686e-20  3.7989504647141124e-20  3.9546089852462217e-20  4.0669236054292527e-20  4.1346693961759374e-20  4.1571095317388066e-20  4.1340034643817966e-20  4.0656096617903917e-20  3.9526828771632638e-20  3.7964659818351545e-20  3.5986764494775265e-20  3.3614876387022804e-20  3.0875050765017132e-20  2.7797379976166436e-20  2.4415664438745386e-20  2.0767042721415962e-20  1.6891584594769988e-20  1.2831851297396656e-20  8.6324275882224122e-21  4.3394304893589419e-21  0.0000000000000000e+00  0.0000000000000000e+00  4.6567283239631076e-21  9.2614905680899905e-21  1.3763919001788395e-20  1.8114770323584767e-20  2.2266461960722689e-20  2.6173590991802499e-20  2.9793430004375940e-20  3.3086394351653826e-20  3.6016475543455686e-20  3.8551635875899079e-20  4.0664159849024082e-20  4.2330958422669645e-20  4.3533822704799662e-20  4.4259624243410136e-20  4.4500459695707991e-20  4.4253738270007654e-20  4.3522210970536200e-20  4.2313941316695019e-20  4.0642217849602746e-20  3.8525409372921258e-20  3.5986764494775331e-20  3.3054157635656606e-20  2.9759784236387968e-20  2.6139808434076375e-20  2.2233966967669280e-20  1.8085133526440053e-20  1.3738848167433178e-20  9.2428168108375451e-21  4.6463861900998999e-21  0.0000000000000000e+00  0.0000000000000000e+00  4.9110823636553009e-21  9.7675856666262953e-21  1.4516365193696666e-20  1.9105459751247088e-20  2.3484658499254975e-20  2.7606049144757916e-20  3.1424541520311223e-20  3.4898360768540632e-20  3.7989504647141136e-20  4.0664159849024070e-20  4.2893072686232675e-20  4.4651870000087122e-20  4.5921326721965050e-20  4.6687577109352828e-20  4.6942267311959632e-20  4.6682647575233485e-20  4.5911603056348465e-20  4.4637622903467161e-20  4.2874707925532611e-20  4.0642217849602807e-20  3.7964659818351677e-20  3.4871420414495821e-20  3.1396444104661591e-20  2.7577861566531568e-20  2.3457571895457627e-20  1.9080783177822232e-20  1.4495516368951212e-20  9.7520778269788557e-21  4.9025062356334806e-21  0.0000000000000000e+00  0.0000000000000000e+00  5.1115754923036633e-21  1.0166559886145300e-20  1.5109616482299850e-20  1.9886637716605045e-20  2.4445336189458637e-20  2.8735816098906387e-20  3.2711118851478739e-20  3.6327736859640846e-20  3.9546089852462193e-20  4.2330958422669621e-20  4.4651870000087104e-20  4.6483432968575977e-20  4.7805615221086719e-20  4.8603964066150853e-20  4.8869765050610239e-20  4.8600137939621090e-20  4.7798068788225395e-20  4.6472377741370430e-20  4.4637622903467149e-20  4.2313941316695067e-20  3.9526828771632759e-20  3.6306860836998403e-20  3.2689358130377707e-20  2.8713999452645863e-20  2.4424386970408949e-20  1.9867568149831423e-20  1.5093519620051843e-20  1.0154598574726356e-20  5.1049677056797475e-21  0.0000000000000000e+00  0.0000000000000000e+00  5.2560260337283347e-21  1.0454071014447871e-20  1.5537214472030702e-20  2.0449796889576541e-20  2.5138028363003891e-20  2.9550576981542092e-20  3.3639130510599636e-20  3.7358925221774134e-20  4.0669236054292527e-20  4.3533822704799626e-20  4.5921326721965038e-20  4.7805615221086731e-20  4.9166067423432217e-20  4.9987800857158081e-20  5.0261834723135436e-20  4.9985188621863975e-20  4.9160915548931833e-20  4.7798068788225347e-20  4.5911603056348363e-20  4.3522210970536212e-20  4.0656096617904007e-20  3.7344688688561809e-20  3.3624296291789350e-20  2.9535711196582368e-20  2.5123760819838500e-20  2.0436816822699755e-20  1.5526264664626857e-20  1.0445939902856552e-20  5.2515374089898136e-21  0.0000000000000000e+00  0.0000000000000000e+00  5.3428650724667873e-21  1.0626995681935104e-20  1.5794512456084249e-20  2.0788814782894278e-20  2.5555200371693783e-20  3.0041464109070205e-20  3.4198469664045297e-20  3.7980687581739278e-20  4.1346693961759356e-20  4.4259624243410093e-20  4.6687577109352798e-20  4.8603964066150835e-20  4.9987800857158051e-20  5.0823937502992321e-20  5.1103224439744049e-20  5.0822612927306639e-20  4.9985188621863914e-20  4.8600137939621012e-20  4.6682647575233401e-20  4.4253738270007672e-20  4.1340034643818057e-20  3.7973473603024843e-20  3.4190954507034409e-20  3.0033934911537983e-20  2.5547976300559396e-20  2.0782244766620211e-20  1.5788972093702298e-20  1.0622883136926114e-20  5.3405957718008156e-21  0.0000000000000000e+00  0.0000000000000000e+00  5.3711541134972371e-21  1.0683464464556062e-20  1.5878727520664115e-20  2.0900022216179193e-20  2.5692333596870719e-20  3.0203155575755354e-20  3.4383066197698487e-20  3.8186269111396210e-20  4.1571095317387970e-20  4.4500459695707901e-20  4.6942267311959560e-20  4.8869765050610179e-20  5.0261834723135382e-20  5.1103224439744012e-20  5.1384715709743090e-20  5.1103224439744031e-20  5.0261834723135388e-20  4.8869765050610179e-20  4.6942267311959608e-20  4.4500459695708021e-20  4.1571095317388156e-20  3.8186269111396432e-20  3.4383066197698680e-20  3.0203155575755510e-20  2.5692333596870875e-20  2.0900022216179322e-20  1.5878727520664226e-20  1.0683464464556137e-20  5.3711541134972762e-21  0.0000000000000000e+00  0.0000000000000000e+00  5.3405957718007749e-21  1.0622883136926037e-20  1.5788972093702192e-20  2.0782244766620070e-20  2.5547976300559228e-20  3.0033934911537803e-20  3.4190954507034193e-20  3.7973473603024590e-20  4.1340034643817828e-20  4.4253738270007503e-20  4.6682647575233310e-20  4.8600137939620957e-20  4.9985188621863854e-20  5.0822612927306543e-20  5.1103224439743982e-20  5.0823937502992284e-20  4.9987800857158015e-20  4.8603964066150774e-20  4.6687577109352798e-20  4.4259624243410166e-20  4.1346693961759458e-20  3.7980687581739477e-20  3.4198469664045496e-20  3.0041464109070374e-20  2.5555200371693933e-20  2.0788814782894410e-20  1.5794512456084364e-20  1.0626995681935172e-20  5.3428650724668227e-21  0.0000000000000000e+00  0.0000000000000000e+00  5.2515374089897722e-21  1.0445939902856474e-20  1.5526264664626749e-20  2.0436816822699617e-20  2.5123760819838325e-20  2.9535711196582181e-20  3.3624296291789115e-20  3.7344688688561550e-20  4.0656096617903754e-20  4.3522210970535996e-20  4.5911603056348248e-20  4.7798068788225226e-20  4.9160915548931695e-20  4.9985188621863824e-20  5.0261834723135328e-20  4.9987800857158015e-20  4.9166067423432150e-20  4.7805615221086659e-20  4.5921326721965014e-20  4.3533822704799698e-20  4.0669236054292624e-20  3.7358925221774285e-20  3.3639130510599811e-20  2.9550576981542279e-20  2.5138028363004057e-20  2.0449796889576670e-20  1.5537214472030801e-20  1.0454071014447931e-20  5.2560260337283678e-21  0.0000000000000000e+00  0.0000000000000000e+00  5.1049677056797053e-21  1.0154598574726281e-20  1.5093519620051741e-20  1.9867568149831297e-20  2.4424386970408795e-20  2.8713999452645671e-20  3.2689358130377460e-20  3.6306860836998120e-20  3.9526828771632506e-20  4.2313941316694844e-20  4.4637622903466957e-20  4.6472377741370273e-20  4.7798068788225208e-20  4.8600137939620897e-20  4.8869765050610101e-20  4.8603964066150750e-20  4.7805615221086635e-20  4.6483432968575899e-20  4.4651870000087098e-20  4.2330958422669669e-20  3.9546089852462289e-20  3.6327736859641003e-20  3.2711118851478908e-20  2.8735816098906543e-20  2.4445336189458778e-20  1.9886637716605154e-20  1.5109616482299934e-20  1.0166559886145351e-20  5.1115754923036904e-21  0.0000000000000000e+00  0.0000000000000000e+00  4.9025062356334430e-21  9.7520778269787820e-21  1.4495516368951115e-20  1.9080783177822118e-20  2.3457571895457489e-20  2.7577861566531393e-20  3.1396444104661362e-20  3.4871420414495544e-20  3.7964659818351424e-20  4.0642217849602602e-20  4.2874707925532412e-20  4.4637622903466957e-20  4.5911603056348212e-20  4.6682647575233250e-20  4.6942267311959488e-20  4.6687577109352714e-20  4.5921326721964960e-20  4.4651870000087043e-20  4.2893072686232633e-20  4.0664159849024088e-20  3.7989504647141208e-20  3.4898360768540788e-20  3.1424541520311403e-20  2.7606049144758061e-20  2.3484658499255107e-20  1.9105459751247184e-20  1.4516365193696736e-20  9.7675856666263360e-21  4.9110823636553250e-21  0.0000000000000000e+00  0.0000000000000000e+00  4.6463861900998683e-21  9.2428168108374864e-21  1.3738848167433100e-20  1.8085133526439951e-20  2.2233966967669159e-20  2.6139808434076236e-20  2.9759784236387776e-20  3.3054157635656365e-20  3.5986764494775126e-20  3.8525409372921089e-20  4.0642217849602632e-20  4.2313941316694874e-20  4.3522210970535990e-20  4.4253738270007485e-20  4.4500459695707858e-20  4.4259624243410039e-20  4.3533822704799560e-20  4.2330958422669555e-20  4.0664159849024040e-20  3.8551635875899121e-20  3.6016475543455794e-20  3.3086394351654024e-20  2.9793430004376145e-20  2.6173590991802649e-20  2.2266461960722806e-20  1.8114770323584860e-20  1.3763919001788467e-20  9.2614905680900386e-21  4.6567283239631332e-21  0.0000000000000000e+00  0.0000000000000000e+00  4.3394304893589163e-21  8.6324275882223686e-21  1.2831851297396595e-20  1.6891584594769904e-20  2.0767042721415863e-20  2.4415664438745292e-20  2.7797379976166279e-20  3.0875050765016939e-20  3.3614876387022636e-20  3.5986764494775126e-20  3.7964659818351466e-20  3.9526828771632560e-20  4.0656096617903778e-20  4.1340034643817852e-20  4.1571095317387970e-20  4.1346693961759296e-20  4.0669236054292467e-20  3.9546089852462145e-20  3.7989504647141124e-20  3.6016475543455758e-20  3.3648556263620104e-20  3.0911622049691490e-20  2.7835585312360352e-20  2.4454067220288296e-20  2.0804028948087233e-20  1.6925366792086610e-20  1.2860475807664236e-20  8.6537869952990655e-21  4.3512833256809707e-21  0.0000000000000000e+00  0.0000000000000000e+00  3.9850216176053735e-21  7.9276350280941634e-21  1.1784515507843299e-20  1.5513277351202681e-20  1.9072943154029148e-20  2.2424395790163192e-20  2.5530808446656508e-20  2.8358048437505734e-20  3.0875050765016933e-20  3.3054157635656389e-20  3.4871420414495598e-20  3.6306860836998186e-20  3.7344688688561593e-20  3.7973473603024626e-20  3.8186269111396234e-20  3.7980687581739284e-20  3.7358925221774116e-20  3.6327736859640840e-20  3.4898360768540650e-20  3.3086394351653904e-20  3.0911622049691423e-20  2.8397797370637556e-20  2.5572381466956564e-20  2.2466241198404346e-20  1.9113310118054448e-20  1.5550216303209874e-20  1.1815881412457244e-20  7.9510957582906796e-21  3.9980744816495223e-21  0.0000000000000000e+00  0.0000000000000000e+00  3.5870656377468504e-21  7.1362050208884800e-21  1.0608376899473859e-20  1.3965386772983299e-20  1.7170311083068610e-20  2.0187904635661181e-20  2.2984987574227338e-20  2.5530808446656475e-20  2.7797379976166249e-20  2.9759784236387782e-20  3.1396444104661404e-20  3.2689358130377508e-20  3.3624296291789151e-20  3.4190954507034211e-20  3.4383066197698499e-20  3.4198469664045316e-20  3.3639130510599648e-20  3.2711118851478733e-20  3.1424541520311235e-20  2.9793430004376018e-20  2.7835585312360286e-20  2.5572381466956549e-20  2.3028529786591611e-20  2.0231806587202529e-20  1.7212747401325667e-20  1.4004311287192808e-20  1.0641519291799155e-20  7.1610716256503665e-21  3.6009485315015716e-21  0.0000000000000000e+00  0.0000000000000000e+00  3.1499510102161469e-21  6.2668621342744541e-21  9.3163947357242486e-21  1.2264958694804021e-20  1.5080086569248130e-20  1.7730791208580695e-20  2.0187904635661160e-20  2.2424395790163143e-20  2.4415664438745229e-20  2.6139808434076212e-20  2.7577861566531417e-20  2.8713999452645707e-20  2.9535711196582211e-20  3.0033934911537821e-20  3.0203155575755372e-20  3.0041464109070229e-20  2.9550576981542164e-20  2.8735816098906417e-20  2.7606049144757934e-20  2.6173590991802556e-20  2.4454067220288244e-20  2.2466241198404337e-20  2.0231806587202529e-20  1.7775147536527791e-20  1.5123069252047761e-20  1.2304502062919333e-20  9.3501826449208281e-21  6.2923166935927405e-21  3.1642280695546927e-21  0.0000000000000000e+00  0.0000000000000000e+00  2.6785031182179129e-21  5.3291982155149822e-21  7.9228140170584276e-21  1.0430727124104046e-20  1.2825280689435858e-20  1.5080086569248124e-20  1.7170311083068607e-20  1.9072943154029121e-20  2.0767042721415844e-20  2.2233966967669156e-20  2.3457571895457507e-20  2.4424386970408825e-20  2.5123760819838376e-20  2.5547976300559285e-20  2.5692333596870761e-20  2.5555200371693822e-20  2.5138028363003954e-20  2.4445336189458682e-20  2.3484658499255014e-20  2.2266461960722743e-20  2.0804028948087194e-20  1.9113310118054430e-20  1.7212747401325667e-20  1.5123069252047758e-20  1.2867060323769279e-20  1.0469308113948446e-20  7.9559296278435548e-21  5.3542819099009852e-21  2.6926615578376016e-21  0.0000000000000000e+00  0.0000000000000000e+00  2.1779359593146957e-21  4.3335740662510075e-21  6.4430160798117778e-21  8.4829143281479938e-21  1.0430727124104052e-20  1.2264958694804028e-20  1.3965386772983308e-20  1.5513277351202672e-20  1.6891584594769904e-20  1.8085133526439957e-20  1.9080783177822136e-20  1.9867568149831330e-20  2.0436816822699653e-20  2.0782244766620112e-20  2.0900022216179229e-20  2.0788814782894320e-20  2.0449796889576580e-20  1.9886637716605072e-20  1.9105459751247115e-20  1.8114770323584812e-20  1.6925366792086586e-20  1.5550216303209865e-20  1.40043112871