<?xml version="1.0"?>
<VTKFile type="UnstructuredGrid"  version="0.1"  >
<UnstructuredGrid>
<Piece  NumberOfPoints="961" NumberOfCells="1800">
<Points>
<DataArray  type="Float64"  NumberOfComponents="3"  format="ascii">-2 -2 0  -1.866666666666667 -2 0  -1.733333333333333 -2 0  -1.6 -2 0  -1.466666666666667 -2 0  -1.333333333333333 -2 0  -1.2 -2 0  -1.066666666666667 -2 0  -0.9333333333333333 -2 0  -0.8 -2 0  -0.6666666666666667 -2 0  -0.5333333333333334 -2 0  -0.3999999999999999 -2 0  -0.2666666666666666 -2 0  -0.1333333333333333 -2 0  0 -2 0  0.1333333333333333 -2 0  0.2666666666666666 -2 0  0.3999999999999999 -2 0  0.5333333333333332 -2 0  0.6666666666666665 -2 0  0.7999999999999998 -2 0  0.9333333333333331 -2 0  1.066666666666667 -2 0  1.2 -2 0  1.333333333333333 -2 0  1.466666666666667 -2 0  1.6 -2 0  1.733333333333333 -2 0  1.866666666666667 -2 0  2 -2 0  -2 -1.866666666666667 0  -1.866666666666667 -1.866666666666667 0  -1.733333333333333 -1.866666666666667 0  -1.6 -1.866666666666667 0  -1.466666666666667 -1.866666666666667 0  -1.333333333333333 -1.866666666666667 0  -1.2 -1.866666666666667 0  -1.066666666666667 -1.866666666666667 0  -0.9333333333333333 -1.866666666666667 0  -0.8 -1.866666666666667 0  -0.6666666666666667 -1.866666666666667 0  -0.5333333333333334 -1.866666666666667 0  -0.3999999999999999 -1.866666666666667 0  -0.2666666666666666 -1.866666666666667 0  -0.1333333333333333 -1.866666666666667 0  0 -1.866666666666667 0  0.1333333333333333 -1.866666666666667 0  0.2666666666666666 -1.866666666666667 0  0.3999999999999999 -1.866666666666667 0  0.5333333333333332 -1.866666666666667 0  0.6666666666666665 -1.866666666666667 0  0.7999999999999998 -1.866666666666667 0  0.9333333333333331 -1.866666666666667 0  1.066666666666667 -1.866666666666667 0  1.2 -1.866666666666667 0  1.333333333333333 -1.866666666666667 0  1.466666666666667 -1.866666666666667 0  1.6 -1.866666666666667 0  1.733333333333333 -1.866666666666667 0  1.866666666666667 -1.866666666666667 0  2 -1.866666666666667 0  -2 -1.733333333333333 0  -1.866666666666667 -1.733333333333333 0  -1.733333333333333 -1.733333333333333 0  -1.6 -1.733333333333333 0  -1.466666666666667 -1.733333333333333 0  -1.333333333333333 -1.733333333333333 0  -1.2 -1.733333333333333 0  -1.066666666666667 -1.733333333333333 0  -0.9333333333333333 -1.733333333333333 0  -0.8 -1.733333333333333 0  -0.6666666666666667 -1.733333333333333 0  -0.5333333333333334 -1.733333333333333 0  -0.3999999999999999 -1.733333333333333 0  -0.2666666666666666 -1.733333333333333 0  -0.1333333333333333 -1.733333333333333 0  0 -1.733333333333333 0  0.1333333333333333 -1.733333333333333 0  0.2666666666666666 -1.733333333333333 0  0.3999999999999999 -1.733333333333333 0  0.5333333333333332 -1.733333333333333 0  0.6666666666666665 -1.733333333333333 0  0.7999999999999998 -1.733333333333333 0  0.9333333333333331 -1.733333333333333 0  1.066666666666667 -1.733333333333333 0  1.2 -1.733333333333333 0  1.333333333333333 -1.733333333333333 0  1.466666666666667 -1.733333333333333 0  1.6 -1.733333333333333 0  1.733333333333333 -1.733333333333333 0  1.866666666666667 -1.733333333333333 0  2 -1.733333333333333 0  -2 -1.6 0  -1.866666666666667 -1.6 0  -1.733333333333333 -1.6 0  -1.6 -1.6 0  -1.466666666666667 -1.6 0  -1.333333333333333 -1.6 0  -1.2 -1.6 0  -1.066666666666667 -1.6 0  -0.9333333333333333 -1.6 0  -0.8 -1.6 0  -0.6666666666666667 -1.6 0  -0.5333333333333334 -1.6 0  -0.3999999999999999 -1.6 0  -0.2666666666666666 -1.6 0  -0.1333333333333333 -1.6 0  0 -1.6 0  0.1333333333333333 -1.6 0  0.2666666666666666 -1.6 0  0.3999999999999999 -1.6 0  0.5333333333333332 -1.6 0  0.6666666666666665 -1.6 0  0.7999999999999998 -1.6 0  0.9333333333333331 -1.6 0  1.066666666666667 -1.6 0  1.2 -1.6 0  1.333333333333333 -1.6 0  1.466666666666667 -1.6 0  1.6 -1.6 0  1.733333333333333 -1.6 0  1.866666666666667 -1.6 0  2 -1.6 0  -2 -1.466666666666667 0  -1.866666666666667 -1.466666666666667 0  -1.733333333333333 -1.466666666666667 0  -1.6 -1.466666666666667 0  -1.466666666666667 -1.466666666666667 0  -1.333333333333333 -1.466666666666667 0  -1.2 -1.466666666666667 0  -1.066666666666667 -1.466666666666667 0  -0.9333333333333333 -1.466666666666667 0  -0.8 -1.466666666666667 0  -0.6666666666666667 -1.466666666666667 0  -0.5333333333333334 -1.466666666666667 0  -0.3999999999999999 -1.466666666666667 0  -0.2666666666666666 -1.466666666666667 0  -0.1333333333333333 -1.466666666666667 0  0 -1.466666666666667 0  0.1333333333333333 -1.466666666666667 0  0.2666666666666666 -1.466666666666667 0  0.3999999999999999 -1.466666666666667 0  0.5333333333333332 -1.466666666666667 0  0.6666666666666665 -1.466666666666667 0  0.7999999999999998 -1.466666666666667 0  0.9333333333333331 -1.466666666666667 0  1.066666666666667 -1.466666666666667 0  1.2 -1.466666666666667 0  1.333333333333333 -1.466666666666667 0  1.466666666666667 -1.466666666666667 0  1.6 -1.466666666666667 0  1.733333333333333 -1.466666666666667 0  1.866666666666667 -1.466666666666667 0  2 -1.466666666666667 0  -2 -1.333333333333333 0  -1.866666666666667 -1.333333333333333 0  -1.733333333333333 -1.333333333333333 0  -1.6 -1.333333333333333 0  -1.466666666666667 -1.333333333333333 0  -1.333333333333333 -1.333333333333333 0  -1.2 -1.333333333333333 0  -1.066666666666667 -1.333333333333333 0  -0.9333333333333333 -1.333333333333333 0  -0.8 -1.333333333333333 0  -0.6666666666666667 -1.333333333333333 0  -0.5333333333333334 -1.333333333333333 0  -0.3999999999999999 -1.333333333333333 0  -0.2666666666666666 -1.333333333333333 0  -0.1333333333333333 -1.333333333333333 0  0 -1.333333333333333 0  0.1333333333333333 -1.333333333333333 0  0.2666666666666666 -1.333333333333333 0  0.3999999999999999 -1.333333333333333 0  0.5333333333333332 -1.333333333333333 0  0.6666666666666665 -1.333333333333333 0  0.7999999999999998 -1.333333333333333 0  0.9333333333333331 -1.333333333333333 0  1.066666666666667 -1.333333333333333 0  1.2 -1.333333333333333 0  1.333333333333333 -1.333333333333333 0  1.466666666666667 -1.333333333333333 0  1.6 -1.333333333333333 0  1.733333333333333 -1.333333333333333 0  1.866666666666667 -1.333333333333333 0  2 -1.333333333333333 0  -2 -1.2 0  -1.866666666666667 -1.2 0  -1.733333333333333 -1.2 0  -1.6 -1.2 0  -1.466666666666667 -1.2 0  -1.333333333333333 -1.2 0  -1.2 -1.2 0  -1.066666666666667 -1.2 0  -0.9333333333333333 -1.2 0  -0.8 -1.2 0  -0.6666666666666667 -1.2 0  -0.5333333333333334 -1.2 0  -0.3999999999999999 -1.2 0  -0.2666666666666666 -1.2 0  -0.1333333333333333 -1.2 0  0 -1.2 0  0.1333333333333333 -1.2 0  0.2666666666666666 -1.2 0  0.3999999999999999 -1.2 0  0.5333333333333332 -1.2 0  0.6666666666666665 -1.2 0  0.7999999999999998 -1.2 0  0.9333333333333331 -1.2 0  1.066666666666667 -1.2 0  1.2 -1.2 0  1.333333333333333 -1.2 0  1.466666666666667 -1.2 0  1.6 -1.2 0  1.733333333333333 -1.2 0  1.866666666666667 -1.2 0  2 -1.2 0  -2 -1.066666666666667 0  -1.866666666666667 -1.066666666666667 0  -1.733333333333333 -1.066666666666667 0  -1.6 -1.066666666666667 0  -1.466666666666667 -1.066666666666667 0  -1.333333333333333 -1.066666666666667 0  -1.2 -1.066666666666667 0  -1.066666666666667 -1.066666666666667 0  -0.9333333333333333 -1.066666666666667 0  -0.8 -1.066666666666667 0  -0.6666666666666667 -1.066666666666667 0  -0.5333333333333334 -1.066666666666667 0  -0.3999999999999999 -1.066666666666667 0  -0.2666666666666666 -1.066666666666667 0  -0.1333333333333333 -1.066666666666667 0  0 -1.066666666666667 0  0.1333333333333333 -1.066666666666667 0  0.2666666666666666 -1.066666666666667 0  0.3999999999999999 -1.066666666666667 0  0.5333333333333332 -1.066666666666667 0  0.6666666666666665 -1.066666666666667 0  0.7999999999999998 -1.066666666666667 0  0.9333333333333331 -1.066666666666667 0  1.066666666666667 -1.066666666666667 0  1.2 -1.066666666666667 0  1.333333333333333 -1.066666666666667 0  1.466666666666667 -1.066666666666667 0  1.6 -1.066666666666667 0  1.733333333333333 -1.066666666666667 0  1.866666666666667 -1.066666666666667 0  2 -1.066666666666667 0  -2 -0.9333333333333333 0  -1.866666666666667 -0.9333333333333333 0  -1.733333333333333 -0.9333333333333333 0  -1.6 -0.9333333333333333 0  -1.466666666666667 -0.9333333333333333 0  -1.333333333333333 -0.9333333333333333 0  -1.2 -0.9333333333333333 0  -1.066666666666667 -0.9333333333333333 0  -0.9333333333333333 -0.9333333333333333 0  -0.8 -0.9333333333333333 0  -0.6666666666666667 -0.9333333333333333 0  -0.5333333333333334 -0.9333333333333333 0  -0.3999999999999999 -0.9333333333333333 0  -0.2666666666666666 -0.9333333333333333 0  -0.1333333333333333 -0.9333333333333333 0  0 -0.9333333333333333 0  0.1333333333333333 -0.9333333333333333 0  0.2666666666666666 -0.9333333333333333 0  0.3999999999999999 -0.9333333333333333 0  0.5333333333333332 -0.9333333333333333 0  0.6666666666666665 -0.9333333333333333 0  0.7999999999999998 -0.9333333333333333 0  0.9333333333333331 -0.9333333333333333 0  1.066666666666667 -0.9333333333333333 0  1.2 -0.9333333333333333 0  1.333333333333333 -0.9333333333333333 0  1.466666666666667 -0.9333333333333333 0  1.6 -0.9333333333333333 0  1.733333333333333 -0.9333333333333333 0  1.866666666666667 -0.9333333333333333 0  2 -0.9333333333333333 0  -2 -0.8 0  -1.866666666666667 -0.8 0  -1.733333333333333 -0.8 0  -1.6 -0.8 0  -1.466666666666667 -0.8 0  -1.333333333333333 -0.8 0  -1.2 -0.8 0  -1.066666666666667 -0.8 0  -0.9333333333333333 -0.8 0  -0.8 -0.8 0  -0.6666666666666667 -0.8 0  -0.5333333333333334 -0.8 0  -0.3999999999999999 -0.8 0  -0.2666666666666666 -0.8 0  -0.1333333333333333 -0.8 0  0 -0.8 0  0.1333333333333333 -0.8 0  0.2666666666666666 -0.8 0  0.3999999999999999 -0.8 0  0.5333333333333332 -0.8 0  0.6666666666666665 -0.8 0  0.7999999999999998 -0.8 0  0.9333333333333331 -0.8 0  1.066666666666667 -0.8 0  1.2 -0.8 0  1.333333333333333 -0.8 0  1.466666666666667 -0.8 0  1.6 -0.8 0  1.733333333333333 -0.8 0  1.866666666666667 -0.8 0  2 -0.8 0  -2 -0.6666666666666667 0  -1.866666666666667 -0.
[...]
<PointData  Scalars="f_10422"> 
<DataArray  type="Float64"  Name="f_10422"  format="ascii">0.0000000000000000e+00  0.0000000000000000e+00  0.0000000000000000e+00  0.0000000000000000e+00  0.0000000000000000e+00  0.0000000000000000e+00  0.0000000000000000e+00  0.0000000000000000e+00  0.0000000000000000e+00  0.0000000000000000e+00  0.0000000000000000e+00  0.0000000000000000e+00  0.0000000000000000e+00  0.0000000000000000e+00  0.0000000000000000e+00  0.0000000000000000e+00  0.0000000000000000e+00  0.0000000000000000e+00  0.0000000000000000e+00  0.0000000000000000e+00  0.0000000000000000e+00  0.0000000000000000e+00  0.0000000000000000e+00  0.0000000000000000e+00  0.0000000000000000e+00  0.0000000000000000e+00  0.0000000000000000e+00  0.0000000000000000e+00  0.0000000000000000e+00  0.0000000000000000e+00  0.0000000000000000e+00  0.0000000000000000e+00  3.8955954256937895e-21  7.7414829095860859e-21  1.1498374702872811e-20  1.5126472008551373e-20  1.8586788644903190e-20  2.1841897724537660e-20  2.4856472987249029e-20  2.7597736953127421e-20  3.0035851803623254e-20  3.2144264429483540e-20  3.3900008578975824e-20  3.5283963943175121e-20  3.6281070941374493e-20  3.6880499731249737e-20  3.7075772109640389e-20  3.6864835300000257e-20  3.6250087055160113e-20  3.5238351997242846e-20  3.3840809650514214e-20  3.2072875191688838e-20  2.9954034553728377e-20  2.7507636203372105e-20  2.4760642744028534e-20  2.1743346652040856e-20  1.8489056375511091e-20  1.5033762873053396e-20  1.1415805773578916e-20  7.6755830825454041e-21  3.8554239856875212e-21  0.0000000000000000e+00  0.0000000000000000e+00  7.7414829095860844e-21  1.5388521923454506e-20  2.2860175945534133e-20  3.0076394235173478e-20  3.6959307386732598e-20  4.3434333635500319e-20  4.9431137897577641e-20  5.4884482576197594e-20  5.9734989490772152e-20  6.3929819633216574e-20  6.7423271160140009e-20  7.0177293280513907e-20  7.2161912758317584e-20  7.3355569731924258e-20  7.3745360021222123e-20  7.3327181832727027e-20  7.2105785670174086e-20  7.0094727253374720e-20  6.7316224310145772e-20  6.3800919223045113e-20  5.9587550692250283e-20  5.4722538854623280e-20  4.9259489765387017e-20  4.3258626995829964e-20  3.6786160737600967e-20  2.9913609087629622e-20  2.2717093818416568e-20  1.5276646695958348e-20  7.6755830825454056e-21  0.0000000000000000e+00  0.0000000000000000e+00  1.1498374702872805e-20  2.2860175945534118e-20  3.3963304352518648e-20  4.4687915047978244e-20  5.4917849603500002e-20  6.4542039494911872e-20  7.3455822682807350e-20  8.1562159131113568e-20  8.8772740493204580e-20  9.5008989402016114e-20  1.0020294268402189e-19  1.0429801221939990e-19  1.0724961727239280e-19  1.0902568275468230e-19  1.0960699888834441e-19  1.0898743897899794e-19  1.0717403341175964e-19  1.0418689948947635e-19  1.0005902831130329e-19  9.4835931522552427e-20  8.8575152452161049e-20  8.1345647910824326e-20  7.3227048799382676e-20  6.4308809765330519e-20  5.4689260586541224e-20  4.4474574891375104e-20  3.3777675052657541e-20  2.2717093818416574e-20  1.1415805773578922e-20  0.0000000000000000e+00  0.0000000000000000e+00  1.5126472008551361e-20  3.0076394235173448e-20  4.4687915047978238e-20  5.8802584422028438e-20  7.2267090754844065e-20  8.4934988787792646e-20  9.6668358953183942e-20  1.0733936575467721e-19  1.1683169553421820e-19  1.2504185918776447e-19  1.3188034765323928e-19  1.3727262938797936e-19  1.4115998035898889e-19  1.4350013852390791e-19  1.4426777642188007e-19  1.4345478729752491e-19  1.4107038211039506e-19  1.3714099680083092e-19  1.3171001126120568e-19  1.2483728357630736e-19  1.1659850523235663e-19  1.0708438514201139e-19  9.6399672486958982e-20  8.4662030523384832e-20  7.2000775553863805e-20  5.8555496977024205e-20  4.4474574891375116e-20  2.9913609087629640e-20  1.5033762873053408e-20  0.0000000000000000e+00  0.0000000000000000e+00  1.8586788644903169e-20  3.6959307386732586e-20  5.4917849603499990e-20  7.2267090754844053e-20  8.8818191808397733e-20  1.0439087342108469e-19  1.1881541407063163e-19  1.3193453682833505e-19  1.4360515821047924e-19  1.5369997804926197e-19  1.6210889283610062e-19  1.6874021756821044e-19  1.7352170337662533e-19  1.7640134041512319e-19  1.7734793775675293e-19  1.7635147440691935e-19  1.7342321799195882e-19  1.6859561019799670e-19  1.6192192058983893e-19  1.5347567300574672e-19  1.4334985127229058e-19  1.3165589348142518e-19  1.1852248647413772e-19  1.0409417440287355e-19  8.8529797141509699e-20  7.2000775553863793e-20  5.4689260586541248e-20  3.6786160737600997e-20  1.8489056375511109e-20  0.0000000000000000e+00  0.0000000000000000e+00  2.1841897724537621e-20  4.3434333635500241e-20  6.4542039494911776e-20  8.4934988787792525e-20  1.0439087342108464e-19  1.2269752558830099e-19  1.3965524625489273e-19  1.5507900559753234e-19  1.6880048575312479e-19  1.8066994064915363e-19  1.9055785131291809e-19  1.9835635815965959e-19  2.0398045461456154e-19  2.0736892921186499e-19  2.0848504612905182e-19  2.0731695699025661e-19  2.0387783971211070e-19  1.9820576315012047e-19  1.9036327930761631e-19  1.8043674785947164e-19  1.6853540068076027e-19  1.5479015690933740e-19  1.3935220174786238e-19  1.2239134463131658e-19  1.0409417440287354e-19  8.4662030523384820e-20  6.4308809765330507e-20  4.3258626995829970e-20  2.1743346652040868e-20  0.0000000000000000e+00  0.0000000000000000e+00  2.4856472987248993e-20  4.9431137897577557e-20  7.3455822682807254e-20  9.6668358953183810e-20  1.1881541407063151e-19  1.3965524625489268e-19  1.5896034713325459e-19  1.7651993734216867e-19  1.9214228372001569e-19  2.0565681003845381e-19  2.1691597661091522e-19  2.2579690739857007e-19  2.3220274645319601e-19  2.3606372875736005e-19  2.3733795378783480e-19  2.3601185345405960e-19  2.3210034944420686e-19  2.2564669842682157e-19  2.1672202697597815e-19  2.0542456147510572e-19  1.9187856156493285e-19  1.7623296888176451e-19  1.5865978581837780e-19  1.3935220174786222e-19  1.1852248647413762e-19  9.6399672486958934e-20  7.3227048799382579e-20  4.9259489765386975e-20  2.4760642744028525e-20  0.0000000000000000e+00  0.0000000000000000e+00  2.7597736953127396e-20  5.4884482576197558e-20  8.1562159131113532e-20  1.0733936575467713e-19  1.3193453682833501e-19  1.5507900559753229e-19  1.7651993734216869e-19  1.9602309698835912e-19  2.1337541810124328e-19  2.2838734301609550e-19  2.4089490703739194e-19  2.5076154297685021e-19  2.5787958574916473e-19  2.6217146028437728e-19  2.6359053964468811e-19  2.6212166394169630e-19  2.5778131441867132e-19  2.5061744086365451e-19  2.4070894431764512e-19  2.2816482079635919e-19  2.1312297540686378e-19  1.9574871975857879e-19  1.7623296888176453e-19  1.5479015690933733e-19  1.3165589348142518e-19  1.0708438514201139e-19  8.1345647910824254e-20  5.4722538854623256e-20  2.7507636203372081e-20  0.0000000000000000e+00  0.0000000000000000e+00  3.0035851803623230e-20  5.9734989490772128e-20  8.8772740493204544e-20  1.1683169553421813e-19  1.4360515821047912e-19  1.6880048575312474e-19  1.9214228372001573e-19  2.1337541810124328e-19  2.3226781013663506e-19  2.4861298172137829e-19  2.6223232234504530e-19  2.7297705189892242e-19  2.8072985730069397e-19  2.8540618467100656e-19  2.8695517271837546e-19  2.8536021701690755e-19  2.8063915896307410e-19  2.7284409733676815e-19  2.6206082452710129e-19  2.4840789356960739e-19  2.3203532612984406e-19  2.1312297540686424e-19  1.9187856156493319e-19  1.6853540068076049e-19  1.4334985127229079e-19  1.1659850523235682e-19  8.8575152452161121e-20  5.9587550692250355e-20  2.9954034553728419e-20  0.0000000000000000e+00  0.0000000000000000e+00  3.2144264429483498e-20  6.3929819633216490e-20  9.5008989402015982e-20  1.2504185918776435e-19  1.5369997804926182e-19  1.8066994064915355e-19  2.0565681003845378e-19  2.2838734301609550e-19  2.4861298172137833e-19  2.6611257766685201e-19  2.8069481748881391e-19  2.9220032315171495e-19  3.0050340309704924e-19  3.0551343480973594e-19  3.0717586343431760e-19  3.0547280536513191e-19  3.0042325011609710e-19  2.9208285820288851e-19  2.8054335719685722e-19  2.6593154248761656e-19  2.4840789356960792e-19  2.2816482079636011e-19  2.0542456147510663e-19  1.8043674785947224e-19  1.5347567300574713e-19  1.2483728357630769e-19  9.4835931522552692e-20  6.3800919223045318e-20  3.2072875191688935e-20  0.0000000000000000e+00  0.0000000000000000e+00  3.3900008578975769e-20  6.7423271160139901e-20  1.0020294268402176e-19  1.3188034765323911e-19  1.6210889283610037e-19  1.9055785131291790e-19  2.1691597661091508e-19  2.4089490703739199e-19  2.6223232234504535e-19  2.8069481748881386e-19  2.9608046136690226e-19  3.0822101198555824e-19  3.1698376336614594e-19  3.2227300365629576e-19  3.2403106825672856e-19  3.2223897627972920e-19  3.1691664326442219e-19  3.0812266773842917e-19  2.9595369388487221e-19  2.8054335719685770e-19  2.6206082452710226e-19  2.4070894431764642e-19  2.1672202697597954e-19  1.9036327930761710e-19  1.6192192058983948e-19  1.3171001126120611e-19  1.0005902831130368e-19  6.7316224310146061e-20  3.3840809650514358e-20  0.0000000000000000e+00  0.0000000000000000e+00  3.5283963943175031e-20  7.0177293280513714e-20  1.0429801221939960e-19  1.3727262938797902e-19  1.6874021756821003e-19  1.9835635815965928e-19  2.2579690739856983e-19  2.5076154297685006e-19  2.7297705189892233e-19  2.9220032315171476e-19  3.0822101198555805e-19  3.2086384624226018e-19  3.2999054915296523e-19  3.3550135729924638e-19  3.3733611692782779e-19  3.3547494647723606e-19  3.2993845796006764e-19  3.2078753469434484e-19  3.0812266773842907e-19  2.9208285820288889e-19  2.7284409733676902e-19  2.5061744086365576e-19  2.2564669842682282e-19  1.9820576315012124e-19  1.6859561019799709e-19  1.3714099680083138e-19  1.0418689948947671e-19  7.0094727253374997e-20  3.5238351997242991e-20  0.0000000000000000e+00  0.0000000000000000e+00  3.6281070941374360e-20  7.2161912758317343e-20  1.0724961727239241e-19  1.4115998035898844e-19  1.7352170337662482e-19  2.0398045461456106e-19  2.3220274645319587e-19  2.5787958574916483e-19  2.8072985730069397e-19  3.0050340309704895e-19  3.1698376336614575e-19  3.2999054915296514e-19  3.3938142023102056e-19  3.4505364651235789e-19  3.4694523572216469e-19  3.4503561488667482e-19  3.3934585809281370e-19  3.2993845796006730e-19  3.1691664326442166e-19  3.0042325011609724e-19  2.8063915896307477e-19  2.5778131441867252e-19  2.3210034944420792e-19  2.0387783971211147e-19  1.7342321799195932e-19  1.4107038211039556e-19  1.0717403341176002e-19  7.2105785670174363e-20  3.6250087055160251e-20  0.0000000000000000e+00  0.0000000000000000e+00  3.6880499731249622e-20  7.3355569731923969e-20  1.0902568275468184e-19  1.4350013852390750e-19  1.7640134041512276e-19  2.0736892921186460e-19  2.3606372875735981e-19  2.6217146028437709e-19  2.8540618467100656e-19  3.0551343480973560e-19  3.2227300365629533e-19  3.3550135729924619e-19  3.4505364651235784e-19  3.5082529466811789e-19  3.5275314454942854e-19  3.5081615144391944e-19  3.4503561488667429e-19  3.3547494647723558e-19  3.2223897627972857e-19  3.0547280536513191e-19  2.8536021701690813e-19  2.6212166394169741e-19  2.3601185345406066e-19  2.0731695699025736e-19  1.7635147440691980e-19  1.4345478729752537e-19  1.0898743897899831e-19  7.3327181832727267e-20  3.6864835300000396e-20  0.0000000000000000e+00  0.0000000000000000e+00  3.7075772109640262e-20  7.3745360021221858e-20  1.0960699888834400e-19  1.4426777642187968e-19  1.7734793775675254e-19  2.0848504612905150e-19  2.3733795378783447e-19  2.6359053964468782e-19  2.8695517271837517e-19  3.0717586343431702e-19  3.2403106825672784e-19  3.3733611692782745e-19  3.4694523572216416e-19  3.5275314454942820e-19  3.5469621040767887e-19  3.5275314454942835e-19  3.4694523572216431e-19  3.3733611692782730e-19  3.2403106825672798e-19  3.0717586343431760e-19  2.8695517271837603e-19  2.6359053964468912e-19  2.3733795378783577e-19  2.0848504612905259e-19  1.7734793775675351e-19  1.4426777642188048e-19  1.0960699888834467e-19  7.3745360021222364e-20  3.7075772109640515e-20  0.0000000000000000e+00  0.0000000000000000e+00  3.6864835300000149e-20  7.3327181832726786e-20  1.0898743897899763e-19  1.4345478729752455e-19  1.7635147440691891e-19  2.0731695699025630e-19  2.3601185345405926e-19  2.6212166394169582e-19  2.8536021701690693e-19  3.0547280536513104e-19  3.2223897627972828e-19  3.3547494647723549e-19  3.4503561488667400e-19  3.5081615144391877e-19  3.5275314454942815e-19  3.5082529466811760e-19  3.4505364651235741e-19  3.3550135729924590e-19  3.2227300365629542e-19  3.0551343480973603e-19  2.8540618467100709e-19  2.6217146028437820e-19  2.3606372875736092e-19  2.0736892921186566e-19  1.7640134041512370e-19  1.4350013852390832e-19  1.0902568275468263e-19  7.3355569731924487e-20  3.6880499731249875e-20  0.0000000000000000e+00  0.0000000000000000e+00  3.6250087055159993e-20  7.2105785670173858e-20  1.0717403341175937e-19  1.4107038211039474e-19  1.7342321799195846e-19  2.0387783971211036e-19  2.3210034944420652e-19  2.5778131441867079e-19  2.8063915896307328e-19  3.0042325011609604e-19  3.1691664326442104e-19  3.2993845796006692e-19  3.3934585809281293e-19  3.4503561488667371e-19  3.4694523572216392e-19  3.4505364651235746e-19  3.3938142023102008e-19  3.2999054915296470e-19  3.1698376336614565e-19  3.0050340309704938e-19  2.8072985730069455e-19  2.5787958574916565e-19  2.3220274645319693e-19  2.0398045461456219e-19  1.7352170337662586e-19  1.4115998035898930e-19  1.0724961727239308e-19  7.2161912758317776e-20  3.6281070941374607e-20  0.0000000000000000e+00  0.0000000000000000e+00  3.5238351997242738e-20  7.0094727253374527e-20  1.0418689948947606e-19  1.3714099680083059e-19  1.6859561019799622e-19  1.9820576315012009e-19  2.2564669842682118e-19  2.5061744086365393e-19  2.7284409733676743e-19  2.9208285820288754e-19  3.0812266773842806e-19  3.2078753469434393e-19  3.2993845796006644e-19  3.3547494647723486e-19  3.3733611692782677e-19  3.3550135729924552e-19  3.2999054915296451e-19  3.2086384624225980e-19  3.0822101198555790e-19  2.9220032315171509e-19  2.7297705189892290e-19  2.5076154297685103e-19  2.2579690739857089e-19  1.9835635815966017e-19  1.6874021756821089e-19  1.3727262938797974e-19  1.0429801221940018e-19  7.0177293280514099e-20  3.5283963943175236e-20  0.0000000000000000e+00  0.0000000000000000e+00  3.3840809650514118e-20  6.7316224310145580e-20  1.0005902831130303e-19  1.3171001126120534e-19  1.6192192058983852e-19  1.9036327930761593e-19  2.1672202697597795e-19  2.4070894431764454e-19  2.6206082452710067e-19  2.8054335719685645e-19  2.9595369388487105e-19  3.0812266773842801e-19  3.1691664326442051e-19  3.2223897627972775e-19  3.2403106825672721e-19  3.2227300365629475e-19  3.1698376336614517e-19  3.0822101198555757e-19  2.9608046136690202e-19  2.8069481748881415e-19  2.6223232234504598e-19  2.4089490703739305e-19  2.1691597661091618e-19  1.9055785131291874e-19  1.6210889283610127e-19  1.3188034765323981e-19  1.0020294268402228e-19  6.7423271160140262e-20  3.3900008578975956e-20  0.0000000000000000e+00  0.0000000000000000e+00  3.2072875191688736e-20  6.3800919223044933e-20  9.4835931522552210e-20  1.2483728357630704e-19  1.5347567300574638e-19  1.8043674785947125e-19  2.0542456147510526e-19  2.2816482079635847e-19  2.4840789356960657e-19  2.6593154248761564e-19  2.8054335719685669e-19  2.9208285820288774e-19  3.0042325011609589e-19  3.0547280536513075e-19  3.0717586343431664e-19  3.0551343480973512e-19  3.0050340309704856e-19  2.9220032315171442e-19  2.8069481748881376e-19  2.6611257766685239e-19  2.4861298172137920e-19  2.2838734301609684e-19  2.0565681003845508e-19  1.8066994064915449e-19  1.5369997804926269e-19  1.2504185918776503e-19  9.5008989402016523e-20  6.3929819633216851e-20  3.2144264429483684e-20  0.0000000000000000e+00  0.0000000000000000e+00  2.9954034553728263e-20  5.9587550692250078e-20  8.8575152452160772e-20  1.1659850523235627e-19  1.4334985127229012e-19  1.6853540068075967e-19  1.9187856156493216e-19  2.1312297540686298e-19  2.3203532612984305e-19  2.4840789356960671e-19  2.6206082452710100e-19  2.7284409733676781e-19  2.8063915896307333e-19  2.8536021701690688e-19  2.8695517271837478e-19  2.8540618467100594e-19  2.8072985730069349e-19  2.7297705189892185e-19  2.6223232234504520e-19  2.4861298172137882e-19  2.3226781013663592e-19  2.1337541810124453e-19  1.9214228372001684e-19  1.6880048575312568e-19  1.4360515821047993e-19  1.1683169553421878e-19  8.8772740493205061e-20  5.9734989490772465e-20  3.0035851803623410e-20  0.0000000000000000e+00  0.0000000000000000e+00  2.7507636203371973e-20  5.4722538854623039e-20  8.1345647910823989e-20  1.0708438514201098e-19  1.3165589348142468e-19  1.5479015690933673e-19  1.7623296888176369e-19  1.9574871975857778e-19  2.1312297540686298e-19  2.2816482079635876e-19  2.4070894431764497e-19  2.5061744086365441e-19  2.5778131441867113e-19  2.6212166394169596e-19  2.6359053964468772e-19  2.6217146028437695e-19  2.5787958574916444e-19  2.5076154297684992e-19  2.4089490703739199e-19  2.2838734301609598e-19  2.1337541810124417e-19  1.9602309698836027e-19  1.7651993734216975e-19  1.5507900559753314e-19  1.3193453682833573e-19  1.0733936575467776e-19  8.1562159131113990e-20  5.4884482576197883e-20  2.7597736953127565e-20  0.0000000000000000e+00  0.0000000000000000e+00  2.4760642744028408e-20  4.9259489765386746e-20  7.3227048799382302e-20  9.6399672486958500e-20  1.1852248647413716e-19  1.3935220174786166e-19  1.5865978581837700e-19  1.7623296888176352e-19  1.9187856156493199e-19  2.0542456147510533e-19  2.1672202697597829e-19  2.2564669842682147e-19  2.3210034944420657e-19  2.3601185345405926e-19  2.3733795378783437e-19  2.3606372875735976e-19  2.3220274645319568e-19  2.2579690739856968e-19  2.1691597661091513e-19  2.0565681003845419e-19  1.9214228372001626e-19  1.7651993734216954e-19  1.5896034713325536e-19  1.3965524625489328e-19  1.1881541407063214e-19  9.6668358953184352e-20  7.3455822682807627e-20  4.9431137897577816e-20  2.4856472987249126e-20  0.0000000000000000e+00  0.0000000000000000e+00  2.1743346652040751e-20  4.3258626995829742e-20  6.4308809765330206e-20  8.4662030523384422e-20  1.0409417440287303e-19  1.2239134463131600e-19  1.3935220174786157e-19  1.5479015690933651e-19  1.6853540068075957e-19  1.8043674785947123e-19  1.9036327930761612e-19  1.9820576315012023e-19  2.0387783971211036e-19  2.0731695699025625e-19  2.0848504612905143e-19  2.0736892921186463e-19  2.0398045461456125e-19  1.9835635815965928e-19  1.9055785131291792e-19  1.8066994064915384e-19  1.6880048575312524e-19  1.5507900559753297e-19  1.3965524625489328e-19  1.2269752558830152e-19  1.0439087342108514e-19  8.4934988787792947e-20  6.4542039494912077e-20  4.3434333635500452e-20  2.1841897724537723e-20  0.0000000000000000e+00  0.0000000000000000e+00  1.8489056375511000e-20  3.6786160737600805e-20  5.4689260586540971e-20  7.2000775553863468e-20  8.8529797141509326e-20  1.0409417440287302e-19  1.1852248647413712e-19  1.3165589348142451e-19  1.4334985127229005e-19  1.5347567300574631e-19  1.6192192058983871e-19  1.6859561019799637e-19  1.7342321799195863e-19  1.7635147440691898e-19  1.7734793775675259e-19  1.7640134041512285e-19  1.7352170337662501e-19  1.6874021756821027e-19  1.6210889283610062e-19  1.5369997804926223e-19  1.4360515821047969e-19  1.3193453682833558e-19  1.1881541407063211e-19  1.0439087342108506e-19  8.8818191808398083e-20  7.2267090754844354e-20  5.4917849603500230e-20  3.6959307386732749e-20  1.8586788644903253e-20  0.0000000000000000e+00  0.0000000000000000e+00  1.5033762873053330e-20  2.9913609087629495e-20  4.4474574891374911e-20  5.8555496977023952e-20  7.2000775553863504e-20  8.4662030523384471e-20  9.6399672486958488e-20  1.0708438514201087e-19  1.1659850523235625e-19  1.2483728357630709e-19  1.3171001126120548e-19  1.3714099680083078e-19  1.4107038211039491e-19  1.4345478729752470e-19  1.4426777642187980e-19  1.4350013852390767e-19  1.4115998035898865e-19  1.3727262938797919e-19  1.3188034765323926e-19  1.2504185918776467e-19  1.1683169553421861e-19  1.0733936575467768e-19  9.66683589531