<?xml version="1.0"?>
<VTKFile type="UnstructuredGrid"  version="0.1"  >
<UnstructuredGrid>
<Piece  NumberOfPoints="961" NumberOfCells="1800">
<Points>
<DataArray  type="Float64"  NumberOfComponents="3"  format="ascii">-2 -2 0  -1.866666666666667 -2 0  -1.733333333333333 -2 0  -1.6 -2 0  -1.466666666666667 -2 0  -1.333333333333333 -2 0  -1.2 -2 0  -1.066666666666667 -2 0  -0.9333333333333333 -2 0  -0.8 -2 0  -0.6666666666666667 -2 0  -0.5333333333333334 -2 0  -0.3999999999999999 -2 0  -0.2666666666666666 -2 0  -0.1333333333333333 -2 0  0 -2 0  0.1333333333333333 -2 0  0.2666666666666666 -2 0  0.3999999999999999 -2 0  0.5333333333333332 -2 0  0.6666666666666665 -2 0  0.7999999999999998 -2 0  0.9333333333333331 -2 0  1.066666666666667 -2 0  1.2 -2 0  1.333333333333333 -2 0  1.466666666666667 -2 0  1.6 -2 0  1.733333333333333 -2 0  1.866666666666667 -2 0  2 -2 0  -2 -1.866666666666667 0  -1.866666666666667 -1.866666666666667 0  -1.733333333333333 -1.866666666666667 0  -1.6 -1.866666666666667 0  -1.466666666666667 -1.866666666666667 0  -1.333333333333333 -1.866666666666667 0  -1.2 -1.866666666666667 0  -1.066666666666667 -1.866666666666667 0  -0.9333333333333333 -1.866666666666667 0  -0.8 -1.866666666666667 0  -0.6666666666666667 -1.866666666666667 0  -0.5333333333333334 -1.866666666666667 0  -0.3999999999999999 -1.866666666666667 0  -0.2666666666666666 -1.866666666666667 0  -0.1333333333333333 -1.866666666666667 0  0 -1.866666666666667 0  0.1333333333333333 -1.866666666666667 0  0.2666666666666666 -1.866666666666667 0  0.3999999999999999 -1.866666666666667 0  0.5333333333333332 -1.866666666666667 0  0.6666666666666665 -1.866666666666667 0  0.7999999999999998 -1.866666666666667 0  0.9333333333333331 -1.866666666666667 0  1.066666666666667 -1.866666666666667 0  1.2 -1.866666666666667 0  1.333333333333333 -1.866666666666667 0  1.466666666666667 -1.866666666666667 0  1.6 -1.866666666666667 0  1.733333333333333 -1.866666666666667 0  1.866666666666667 -1.866666666666667 0  2 -1.866666666666667 0  -2 -1.733333333333333 0  -1.866666666666667 -1.733333333333333 0  -1.733333333333333 -1.733333333333333 0  -1.6 -1.733333333333333 0  -1.466666666666667 -1.733333333333333 0  -1.333333333333333 -1.733333333333333 0  -1.2 -1.733333333333333 0  -1.066666666666667 -1.733333333333333 0  -0.9333333333333333 -1.733333333333333 0  -0.8 -1.733333333333333 0  -0.6666666666666667 -1.733333333333333 0  -0.5333333333333334 -1.733333333333333 0  -0.3999999999999999 -1.733333333333333 0  -0.2666666666666666 -1.733333333333333 0  -0.1333333333333333 -1.733333333333333 0  0 -1.733333333333333 0  0.1333333333333333 -1.733333333333333 0  0.2666666666666666 -1.733333333333333 0  0.3999999999999999 -1.733333333333333 0  0.5333333333333332 -1.733333333333333 0  0.6666666666666665 -1.733333333333333 0  0.7999999999999998 -1.733333333333333 0  0.9333333333333331 -1.733333333333333 0  1.066666666666667 -1.733333333333333 0  1.2 -1.733333333333333 0  1.333333333333333 -1.733333333333333 0  1.466666666666667 -1.733333333333333 0  1.6 -1.733333333333333 0  1.733333333333333 -1.733333333333333 0  1.866666666666667 -1.733333333333333 0  2 -1.733333333333333 0  -2 -1.6 0  -1.866666666666667 -1.6 0  -1.733333333333333 -1.6 0  -1.6 -1.6 0  -1.466666666666667 -1.6 0  -1.333333333333333 -1.6 0  -1.2 -1.6 0  -1.066666666666667 -1.6 0  -0.9333333333333333 -1.6 0  -0.8 -1.6 0  -0.6666666666666667 -1.6 0  -0.5333333333333334 -1.6 0  -0.3999999999999999 -1.6 0  -0.2666666666666666 -1.6 0  -0.1333333333333333 -1.6 0  0 -1.6 0  0.1333333333333333 -1.6 0  0.2666666666666666 -1.6 0  0.3999999999999999 -1.6 0  0.5333333333333332 -1.6 0  0.6666666666666665 -1.6 0  0.7999999999999998 -1.6 0  0.9333333333333331 -1.6 0  1.066666666666667 -1.6 0  1.2 -1.6 0  1.333333333333333 -1.6 0  1.466666666666667 -1.6 0  1.6 -1.6 0  1.733333333333333 -1.6 0  1.866666666666667 -1.6 0  2 -1.6 0  -2 -1.466666666666667 0  -1.866666666666667 -1.466666666666667 0  -1.733333333333333 -1.466666666666667 0  -1.6 -1.466666666666667 0  -1.466666666666667 -1.466666666666667 0  -1.333333333333333 -1.466666666666667 0  -1.2 -1.466666666666667 0  -1.066666666666667 -1.466666666666667 0  -0.9333333333333333 -1.466666666666667 0  -0.8 -1.466666666666667 0  -0.6666666666666667 -1.466666666666667 0  -0.5333333333333334 -1.466666666666667 0  -0.3999999999999999 -1.466666666666667 0  -0.2666666666666666 -1.466666666666667 0  -0.1333333333333333 -1.466666666666667 0  0 -1.466666666666667 0  0.1333333333333333 -1.466666666666667 0  0.2666666666666666 -1.466666666666667 0  0.3999999999999999 -1.466666666666667 0  0.5333333333333332 -1.466666666666667 0  0.6666666666666665 -1.466666666666667 0  0.7999999999999998 -1.466666666666667 0  0.9333333333333331 -1.466666666666667 0  1.066666666666667 -1.466666666666667 0  1.2 -1.466666666666667 0  1.333333333333333 -1.466666666666667 0  1.466666666666667 -1.466666666666667 0  1.6 -1.466666666666667 0  1.733333333333333 -1.466666666666667 0  1.866666666666667 -1.466666666666667 0  2 -1.466666666666667 0  -2 -1.333333333333333 0  -1.866666666666667 -1.333333333333333 0  -1.733333333333333 -1.333333333333333 0  -1.6 -1.333333333333333 0  -1.466666666666667 -1.333333333333333 0  -1.333333333333333 -1.333333333333333 0  -1.2 -1.333333333333333 0  -1.066666666666667 -1.333333333333333 0  -0.9333333333333333 -1.333333333333333 0  -0.8 -1.333333333333333 0  -0.6666666666666667 -1.333333333333333 0  -0.5333333333333334 -1.333333333333333 0  -0.3999999999999999 -1.333333333333333 0  -0.2666666666666666 -1.333333333333333 0  -0.1333333333333333 -1.333333333333333 0  0 -1.333333333333333 0  0.1333333333333333 -1.333333333333333 0  0.2666666666666666 -1.333333333333333 0  0.3999999999999999 -1.333333333333333 0  0.5333333333333332 -1.333333333333333 0  0.6666666666666665 -1.333333333333333 0  0.7999999999999998 -1.333333333333333 0  0.9333333333333331 -1.333333333333333 0  1.066666666666667 -1.333333333333333 0  1.2 -1.333333333333333 0  1.333333333333333 -1.333333333333333 0  1.466666666666667 -1.333333333333333 0  1.6 -1.333333333333333 0  1.733333333333333 -1.333333333333333 0  1.866666666666667 -1.333333333333333 0  2 -1.333333333333333 0  -2 -1.2 0  -1.866666666666667 -1.2 0  -1.733333333333333 -1.2 0  -1.6 -1.2 0  -1.466666666666667 -1.2 0  -1.333333333333333 -1.2 0  -1.2 -1.2 0  -1.066666666666667 -1.2 0  -0.9333333333333333 -1.2 0  -0.8 -1.2 0  -0.6666666666666667 -1.2 0  -0.5333333333333334 -1.2 0  -0.3999999999999999 -1.2 0  -0.2666666666666666 -1.2 0  -0.1333333333333333 -1.2 0  0 -1.2 0  0.1333333333333333 -1.2 0  0.2666666666666666 -1.2 0  0.3999999999999999 -1.2 0  0.5333333333333332 -1.2 0  0.6666666666666665 -1.2 0  0.7999999999999998 -1.2 0  0.9333333333333331 -1.2 0  1.066666666666667 -1.2 0  1.2 -1.2 0  1.333333333333333 -1.2 0  1.466666666666667 -1.2 0  1.6 -1.2 0  1.733333333333333 -1.2 0  1.866666666666667 -1.2 0  2 -1.2 0  -2 -1.066666666666667 0  -1.866666666666667 -1.066666666666667 0  -1.733333333333333 -1.066666666666667 0  -1.6 -1.066666666666667 0  -1.466666666666667 -1.066666666666667 0  -1.333333333333333 -1.066666666666667 0  -1.2 -1.066666666666667 0  -1.066666666666667 -1.066666666666667 0  -0.9333333333333333 -1.066666666666667 0  -0.8 -1.066666666666667 0  -0.6666666666666667 -1.066666666666667 0  -0.5333333333333334 -1.066666666666667 0  -0.3999999999999999 -1.066666666666667 0  -0.2666666666666666 -1.066666666666667 0  -0.1333333333333333 -1.066666666666667 0  0 -1.066666666666667 0  0.1333333333333333 -1.066666666666667 0  0.2666666666666666 -1.066666666666667 0  0.3999999999999999 -1.066666666666667 0  0.5333333333333332 -1.066666666666667 0  0.6666666666666665 -1.066666666666667 0  0.7999999999999998 -1.066666666666667 0  0.9333333333333331 -1.066666666666667 0  1.066666666666667 -1.066666666666667 0  1.2 -1.066666666666667 0  1.333333333333333 -1.066666666666667 0  1.466666666666667 -1.066666666666667 0  1.6 -1.066666666666667 0  1.733333333333333 -1.066666666666667 0  1.866666666666667 -1.066666666666667 0  2 -1.066666666666667 0  -2 -0.9333333333333333 0  -1.866666666666667 -0.9333333333333333 0  -1.733333333333333 -0.9333333333333333 0  -1.6 -0.9333333333333333 0  -1.466666666666667 -0.9333333333333333 0  -1.333333333333333 -0.9333333333333333 0  -1.2 -0.9333333333333333 0  -1.066666666666667 -0.9333333333333333 0  -0.9333333333333333 -0.9333333333333333 0  -0.8 -0.9333333333333333 0  -0.6666666666666667 -0.9333333333333333 0  -0.5333333333333334 -0.9333333333333333 0  -0.3999999999999999 -0.9333333333333333 0  -0.2666666666666666 -0.9333333333333333 0  -0.1333333333333333 -0.9333333333333333 0  0 -0.9333333333333333 0  0.1333333333333333 -0.9333333333333333 0  0.2666666666666666 -0.9333333333333333 0  0.3999999999999999 -0.9333333333333333 0  0.5333333333333332 -0.9333333333333333 0  0.6666666666666665 -0.9333333333333333 0  0.7999999999999998 -0.9333333333333333 0  0.9333333333333331 -0.9333333333333333 0  1.066666666666667 -0.9333333333333333 0  1.2 -0.9333333333333333 0  1.333333333333333 -0.9333333333333333 0  1.466666666666667 -0.9333333333333333 0  1.6 -0.9333333333333333 0  1.733333333333333 -0.9333333333333333 0  1.866666666666667 -0.9333333333333333 0  2 -0.9333333333333333 0  -2 -0.8 0  -1.866666666666667 -0.8 0  -1.733333333333333 -0.8 0  -1.6 -0.8 0  -1.466666666666667 -0.8 0  -1.333333333333333 -0.8 0  -1.2 -0.8 0  -1.066666666666667 -0.8 0  -0.9333333333333333 -0.8 0  -0.8 -0.8 0  -0.6666666666666667 -0.8 0  -0.5333333333333334 -0.8 0  -0.3999999999999999 -0.8 0  -0.2666666666666666 -0.8 0  -0.1333333333333333 -0.8 0  0 -0.8 0  0.1333333333333333 -0.8 0  0.2666666666666666 -0.8 0  0.3999999999999999 -0.8 0  0.5333333333333332 -0.8 0  0.6666666666666665 -0.8 0  0.7999999999999998 -0.8 0  0.9333333333333331 -0.8 0  1.066666666666667 -0.8 0  1.2 -0.8 0  1.333333333333333 -0.8 0  1.466666666666667 -0.8 0  1.6 -0.8 0  1.733333333333333 -0.8 0  1.866666666666667 -0.8 0  2 -0.8 0  -2 -0.6666666666666667 0  -1.866666666666667 -0.
[...]
<PointData  Scalars="f_10422"> 
<DataArray  type="Float64"  Name="f_10422"  format="ascii">0.0000000000000000e+00  0.0000000000000000e+00  0.0000000000000000e+00  0.0000000000000000e+00  0.0000000000000000e+00  0.0000000000000000e+00  0.0000000000000000e+00  0.0000000000000000e+00  0.0000000000000000e+00  0.0000000000000000e+00  0.0000000000000000e+00  0.0000000000000000e+00  0.0000000000000000e+00  0.0000000000000000e+00  0.0000000000000000e+00  0.0000000000000000e+00  0.0000000000000000e+00  0.0000000000000000e+00  0.0000000000000000e+00  0.0000000000000000e+00  0.0000000000000000e+00  0.0000000000000000e+00  0.0000000000000000e+00  0.0000000000000000e+00  0.0000000000000000e+00  0.0000000000000000e+00  0.0000000000000000e+00  0.0000000000000000e+00  0.0000000000000000e+00  0.0000000000000000e+00  0.0000000000000000e+00  0.0000000000000000e+00  7.5405781514284607e-22  1.4984938246580186e-21  2.2257032259960299e-21  2.9279822946594269e-21  3.5977846014647320e-21  4.2278655447915572e-21  4.8113871346340068e-21  5.3420047401498399e-21  5.8139427512447156e-21  6.2220613683859324e-21  6.5619150884575454e-21  6.8298028550619244e-21  7.0228096338374556e-21  7.1388391272098462e-21  7.1766373703322773e-21  7.1358070138837241e-21  7.0168121831295772e-21  6.8209738981155083e-21  6.5504561432189983e-21  6.2082427843715003e-21  5.7981056506336483e-21  5.3245642292448550e-21  4.7928375841979304e-21  4.2087893322267776e-21  3.5788668819703805e-21  2.9100368869571043e-21  2.2097206252332868e-21  1.4857378081402779e-21  7.4628195934363367e-22  0.0000000000000000e+00  0.0000000000000000e+00  1.4984938246580177e-21  2.9787064496851088e-21  4.4249703687339443e-21  5.8217904186779630e-21  7.1540936703582400e-21  8.4074435726440505e-21  9.5682255906833108e-21  1.0623811893731875e-20  1.1562708839296488e-20  1.2374688551369298e-20  1.3050904671843406e-20  1.3583991832087814e-20  1.3968148209685995e-20  1.4199200531909006e-20  1.4274650978321708e-20  1.4193705578017242e-20  1.3957283870648976e-20  1.3568009793085778e-20  1.3030183959088645e-20  1.2349737715606475e-20  1.1534169587620761e-20  1.0592464970983948e-20  9.5350002165391310e-21  8.3734326063250013e-21  7.1205782331333272e-21  5.7902806238247825e-21  4.3972744238602457e-21  2.9570511235036606e-21  1.4857378081402783e-21  0.0000000000000000e+00  0.0000000000000000e+00  2.2257032259960299e-21  4.4249703687339451e-21  6.5741670467565709e-21  8.6500952748105948e-21  1.0630270641357347e-20  1.2493193971170374e-20  1.4218606171572174e-20  1.5787723516434531e-20  1.7183452444532804e-20  1.8390582988903407e-20  1.9395959737718587e-20  2.0188629111529452e-20  2.0759961761410056e-20  2.1103749016188279e-20  2.1216272501241519e-20  2.1096346292141233e-20  2.0745331237810733e-20  2.0167121379538575e-20  1.9368102697753892e-20  1.8357084734536197e-20  1.7145205966075371e-20  1.5745814139334341e-20  1.4174323150404437e-20  1.2448048446264353e-20  1.0586023404193879e-20  8.6087997102585508e-21  6.5382353831765868e-21  4.3972744238602479e-21  2.2097206252332879e-21  0.0000000000000000e+00  0.0000000000000000e+00  2.9279822946594258e-21  5.8217904186779607e-21  8.6500952748105948e-21  1.1382226203875027e-20  1.3988507174515543e-20  1.6440591251361466e-20  1.8711781789480943e-20  2.0777334085039300e-20  2.2614733679197947e-20  2.4203948520586614e-20  2.5527652629371755e-20  2.6571419175742163e-20  2.7323881138439631e-20  2.7776857990524654e-20  2.7925447177263077e-20  2.7768079500218695e-20  2.7306537895060317e-20  2.6545939481312904e-20  2.5494681164529948e-20  2.4164349480709574e-20  2.2569595786188209e-20  2.0727978311998195e-20  1.8659773018666667e-20  1.6387755602380320e-20  1.3936957401850244e-20  1.1334398285785738e-20  8.6087997102585508e-21  5.7902806238247847e-21  2.9100368869571061e-21  0.0000000000000000e+00  0.0000000000000000e+00  3.5977846014647312e-21  7.1540936703582370e-21  1.0630270641357339e-20  1.3988507174515546e-20  1.7192250308706240e-20  2.0206603954192048e-20  2.2998715664483268e-20  2.5538141852843883e-20  2.7797186311807888e-20  2.9751207959355515e-20  3.1378894415208822e-20  3.2662498509724594e-20  3.3588035262861049e-20  3.4145437296792065e-20  3.4328667084603589e-20  3.4135784894761793e-20  3.3568971765277259e-20  3.2634507328474653e-20  3.1342702801834756e-20  2.9707789957084775e-20  2.7747767372990059e-20  2.5484205760818237e-20  2.2942014616435421e-20  2.0149172884232441e-20  1.7136426685190794e-20  1.3936957401850250e-20  1.0586023404193885e-20  7.1205782331333332e-21  3.5788668819703851e-21  0.0000000000000000e+00  0.0000000000000000e+00  4.2278655447915527e-21  8.4074435726440400e-21  1.2493193971170363e-20  1.6440591251361454e-20  2.0206603954192036e-20  2.3750163443132733e-20  2.7032614621536477e-20  3.0018141864558280e-20  3.2674164427478633e-20  3.4971696447052276e-20  3.6885667354366895e-20  3.8395199118226365e-20  3.9483837290703103e-20  4.0139733366218859e-20  4.0355776510346945e-20  4.0129673271267609e-20  3.9463974455709308e-20  3.8366048928985586e-20  3.6848004680199502e-20  3.4926558072483165e-20  3.2622852766833432e-20  2.9962230357605950e-20  2.6973955275816145e-20  2.3690896984932478e-20  2.0149172884232444e-20  1.6387755602380323e-20  1.2448048446264348e-20  8.3734326063250043e-21  4.2087893322267821e-21  0.0000000000000000e+00  0.0000000000000000e+00  4.8113871346340015e-21  9.5682255906832927e-21  1.4218606171572162e-20  1.8711781789480922e-20  2.2998715664483250e-20  2.7032614621536483e-20  3.0769440600291006e-20  3.4168393720629302e-20  3.7192360814179859e-20  3.9808323991761891e-20  4.1987724473126686e-20  4.3706777540599988e-20  4.4946735101343792e-20  4.5694092966429246e-20  4.5940740587006767e-20  4.5684051631641591e-20  4.4926914443283106e-20  4.3677702075446606e-20  4.1950182269179213e-20  3.9763368388032289e-20  3.7141312969027621e-20  3.4112846163293109e-20  3.0711261918049623e-20  2.6973955275816121e-20  2.2942014616435403e-20  1.8659773018666658e-20  1.4174323150404425e-20  9.5350002165391295e-21  4.7928375841979311e-21  0.0000000000000000e+00  0.0000000000000000e+00  5.3420047401498391e-21  1.0623811893731875e-20  1.5787723516434537e-20  2.0777334085039291e-20  2.5538141852843865e-20  3.0018141864558274e-20  3.4168393720629302e-20  3.7943557294903537e-20  4.1302390006261951e-20  4.4208199790235067e-20  4.6629248530679797e-20  4.8539101358374951e-20  4.9916917890754959e-20  5.0747682172267390e-20  5.1022368777270711e-20  5.0738043255167210e-20  4.9897895826945599e-20  4.8511207978092931e-20  4.6593252328090186e-20  4.4165126883400757e-20  4.1253525489860407e-20  3.7890446981381612e-20  3.4112846163293133e-20  2.9962230357605950e-20  2.5484205760818222e-20  2.0727978311998183e-20  1.5745814139334329e-20  1.0592464970983945e-20  5.3245642292448535e-21  0.0000000000000000e+00  0.0000000000000000e+00  5.8139427512447133e-21  1.1562708839296488e-20  1.7183452444532798e-20  2.2614733679197947e-20  2.7797186311807857e-20  3.2674164427478615e-20  3.7192360814179859e-20  4.1302390006261963e-20  4.4959329268247165e-20  4.8123211300768904e-20  5.0759463044631542e-20  5.2839285615080888e-20  5.4339971097954528e-20  5.5245152672122385e-20  5.5544985281786494e-20  5.5236254861895877e-20  5.4322414913898146e-20  5.2813550030222683e-20  5.0726266766330226e-20  4.8083513050119977e-20  4.4914328090491334e-20  4.1253525489860491e-20  3.7141312969027705e-20  3.2622852766833474e-20  2.7747767372990095e-20  2.2569595786188236e-20  1.7145205966075395e-20  1.1534169587620778e-20  5.7981056506336581e-21  0.0000000000000000e+00  0.0000000000000000e+00  6.2220613683859256e-21  1.2374688551369284e-20  1.8390582988903389e-20  2.4203948520586596e-20  2.9751207959355485e-20  3.4971696447052252e-20  3.9808323991761897e-20  4.4208199790235067e-20  4.8123211300768904e-20  5.1510551525447502e-20  5.4333188554825183e-20  5.6560272097705051e-20  5.8167472445369521e-20  5.9137248090485963e-20  5.9459039026016620e-20  5.9129383580217147e-20  5.8151957491918438e-20  5.6537534787232903e-20  5.4303870875663642e-20  5.1475509130947848e-20  4.8083513050120049e-20  4.4165126883400919e-20  3.9763368388032463e-20  3.4926558072483273e-20  2.9707789957084854e-20  2.4164349480709640e-20  1.8357084734536254e-20  1.2349737715606514e-20  6.2082427843715229e-21  0.0000000000000000e+00  0.0000000000000000e+00  6.5619150884575364e-21  1.3050904671843388e-20  1.9395959737718563e-20  2.5527652629371731e-20  3.1378894415208786e-20  3.6885667354366859e-20  4.1987724473126686e-20  4.6629248530679767e-20  5.0759463044631548e-20  5.4333188554825183e-20  5.7311337910571224e-20  5.9661345052933658e-20  6.1357522514562437e-20  6.2381343661555769e-20  6.2721646543815731e-20  6.2374757092257654e-20  6.1344530293418498e-20  5.9642308874886793e-20  5.7286799938814669e-20  5.4303870875663727e-20  5.0726266766330413e-20  4.6593252328090421e-20  4.1950182269179448e-20  3.6848004680199689e-20  3.1342702801834888e-20  2.5494681164530047e-20  1.9368102697753967e-20  1.3030183959088704e-20  6.5504561432190292e-21  0.0000000000000000e+00  0.0000000000000000e+00  6.8298028550619093e-21  1.3583991832087784e-20  2.0188629111529398e-20  2.6571419175742105e-20  3.2662498509724522e-20  3.8395199118226311e-20  4.3706777540599957e-20  4.8539101358374945e-20  5.2839285615080906e-20  5.6560272097705051e-20  5.9661345052933646e-20  6.2108577615623083e-20  6.3875203998566445e-20  6.4941913319315834e-20  6.5297061810279579e-20  6.4936801061864793e-20  6.3865120874727304e-20  6.2093806235948584e-20  5.9642308874886793e-20  5.6537534787232975e-20  5.2813550030222845e-20  4.8511207978093166e-20  4.3677702075446828e-20  3.8366048928985754e-20  3.2634507328474767e-20  2.6545939481312994e-20  2.0167121379538656e-20  1.3568009793085838e-20  6.8209738981155399e-21  0.0000000000000000e+00  0.0000000000000000e+00  7.0228096338374405e-21  1.3968148209685953e-20  2.0759961761409992e-20  2.7323881138439565e-20  3.3588035262860953e-20  3.9483837290703012e-20  4.4946735101343768e-20  4.9916917890754977e-20  5.4339971097954540e-20  5.8167472445369497e-20  6.1357522514562389e-20  6.3875203998566409e-20  6.5692964559815024e-20  6.6790919067228833e-20  6.7157067876544848e-20  6.6787428743727462e-20  6.5686080911666878e-20  6.3865120874727256e-20  6.1344530293418414e-20  5.8151957491918474e-20  5.4322414913898266e-20  4.9897895826945834e-20  4.4926914443283310e-20  3.9463974455709453e-20  3.3568971765277367e-20  2.7306537895060401e-20  2.0745331237810808e-20  1.3957283870649025e-20  7.0168121831296043e-21  0.0000000000000000e+00  0.0000000000000000e+00  7.1388391272098252e-21  1.4199200531908946e-20  2.1103749016188195e-20  2.7776857990524570e-20  3.4145437296791987e-20  4.0139733366218786e-20  4.5694092966429204e-20  5.0747682172267353e-20  5.5245152672122361e-20  5.9137248090485927e-20  6.2381343661555709e-20  6.4941913319315774e-20  6.6790919067228797e-20  6.7908118345521569e-20  6.8281286015818244e-20  6.7906348521166352e-20  6.6787428743727402e-20  6.4936801061864721e-20  6.2374757092257582e-20  5.9129383580217183e-20  5.5236254861895998e-20  5.0738043255167427e-20  4.5684051631641808e-20  4.0129673271267759e-20  3.4135784894761902e-20  2.7768079500218779e-20  2.1096346292141299e-20  1.4193705578017285e-20  7.1358070138837482e-21  0.0000000000000000e+00  0.0000000000000000e+00  7.1766373703322517e-21  1.4274650978321647e-20  2.1216272501241440e-20  2.7925447177262981e-20  3.4328667084603481e-20  4.0355776510346879e-20  4.5940740587006712e-20  5.1022368777270651e-20  5.5544985281786422e-20  5.9459039026016524e-20  6.2721646543815599e-20  6.5297061810279459e-20  6.7157067876544739e-20  6.8281286015818172e-20  6.8657398993589789e-20  6.8281286015818208e-20  6.7157067876544763e-20  6.5297061810279459e-20  6.2721646543815635e-20  5.9459039026016692e-20  5.5544985281786638e-20  5.1022368777270910e-20  4.5940740587006965e-20  4.0355776510347077e-20  3.4328667084603680e-20  2.7925447177263143e-20  2.1216272501241573e-20  1.4274650978321738e-20  7.1766373703322983e-21  0.0000000000000000e+00  0.0000000000000000e+00  7.1358070138836986e-21  1.4193705578017191e-20  2.1096346292141163e-20  2.7768079500218616e-20  3.4135784894761691e-20  4.0129673271267530e-20  4.5684051631641531e-20  5.0738043255167114e-20  5.5236254861895757e-20  5.9129383580216991e-20  6.2374757092257473e-20  6.4936801061864649e-20  6.6787428743727305e-20  6.7906348521166232e-20  6.8281286015818172e-20  6.7908118345521521e-20  6.6790919067228748e-20  6.4941913319315714e-20  6.2381343661555685e-20  5.9137248090485999e-20  5.5245152672122506e-20  5.0747682172267576e-20  4.5694092966429409e-20  4.0139733366218973e-20  3.4145437296792173e-20  2.7776857990524739e-20  2.1103749016188333e-20  1.4199200531909043e-20  7.1388391272098688e-21  0.0000000000000000e+00  0.0000000000000000e+00  7.0168121831295501e-21  1.3957283870648931e-20  2.0745331237810669e-20  2.7306537895060232e-20  3.3568971765277180e-20  3.9463974455709230e-20  4.4926914443283021e-20  4.9897895826945497e-20  5.4322414913898002e-20  5.8151957491918233e-20  6.1344530293418258e-20  6.3865120874727124e-20  6.5686080911666710e-20  6.6787428743727257e-20  6.7157067876544715e-20  6.6790919067228748e-20  6.5692964559814939e-20  6.3875203998566349e-20  6.1357522514562377e-20  5.8167472445369581e-20  5.4339971097954661e-20  4.9916917890755145e-20  4.4946735101343960e-20  3.9483837290703223e-20  3.3588035262861145e-20  2.7323881138439727e-20  2.0759961761410116e-20  1.3968148209686034e-20  7.0228096338374782e-21  0.0000000000000000e+00  0.0000000000000000e+00  6.8209738981154872e-21  1.3568009793085736e-20  2.0167121379538512e-20  2.6545939481312825e-20  3.2634507328474569e-20  3.8366048928985513e-20  4.3677702075446509e-20  4.8511207978092823e-20  5.2813550030222545e-20  5.6537534787232723e-20  5.9642308874886576e-20  6.2093806235948392e-20  6.3865120874727052e-20  6.4936801061864553e-20  6.5297061810279375e-20  6.4941913319315666e-20  6.3875203998566325e-20  6.2108577615623011e-20  5.9661345052933598e-20  5.6560272097705075e-20  5.2839285615081026e-20  4.8539101358375120e-20  4.3706777540600150e-20  3.8395199118226491e-20  3.2662498509724685e-20  2.6571419175742244e-20  2.0188629111529503e-20  1.3583991832087850e-20  6.8298028550619439e-21  0.0000000000000000e+00  0.0000000000000000e+00  6.5504561432189788e-21  1.3030183959088603e-20  1.9368102697753835e-20  2.5494681164529894e-20  3.1342702801834708e-20  3.6848004680199460e-20  4.1950182269179135e-20  4.6593252328090060e-20  5.0726266766330100e-20  5.4303870875663462e-20  5.7286799938814416e-20  5.9642308874886576e-20  6.1344530293418161e-20  6.2374757092257377e-20  6.2721646543815527e-20  6.2381343661555612e-20  6.1357522514562305e-20  5.9661345052933538e-20  5.7311337910571176e-20  5.4333188554825207e-20  5.0759463044631644e-20  4.6629248530679960e-20  4.1987724473126897e-20  3.6885667354367051e-20  3.1378894415208954e-20  2.5527652629371851e-20  1.9395959737718650e-20  1.3050904671843447e-20  6.5619150884575657e-21  0.0000000000000000e+00  0.0000000000000000e+00  6.2082427843714808e-21  1.2349737715606439e-20  1.8357084734536152e-20  2.4164349480709514e-20  2.9707789957084721e-20  3.4926558072483081e-20  3.9763368388032192e-20  4.4165126883400606e-20  4.8083513050119784e-20  5.1475509130947625e-20  5.4303870875663486e-20  5.6537534787232759e-20  5.8151957491918233e-20  5.9129383580216955e-20  5.9459039026016487e-20  5.9137248090485855e-20  5.8167472445369425e-20  5.6560272097704978e-20  5.4333188554825159e-20  5.1510551525447562e-20  4.8123211300769042e-20  4.4208199790235319e-20  3.9808323991762132e-20  3.4971696447052438e-20  2.9751207959355647e-20  2.4203948520586719e-20  1.8390582988903483e-20  1.2374688551369346e-20  6.2220613683859549e-21  0.0000000000000000e+00  0.0000000000000000e+00  5.7981056506336258e-21  1.1534169587620722e-20  1.7145205966075323e-20  2.2569595786188131e-20  2.7747767372989962e-20  3.2622852766833311e-20  3.7141312969027489e-20  4.1253525489860244e-20  4.4914328090491118e-20  4.8083513050119790e-20  5.0726266766330148e-20  5.2813550030222611e-20  5.4322414913898014e-20  5.5236254861895781e-20  5.5544985281786410e-20  5.5245152672122301e-20  5.4339971097954468e-20  5.2839285615080845e-20  5.0759463044631548e-20  4.8123211300768988e-20  4.4959329268247322e-20  4.1302390006262174e-20  3.7192360814180070e-20  3.2674164427478789e-20  2.7797186311808008e-20  2.2614733679198068e-20  1.7183452444532885e-20  1.1562708839296542e-20  5.8139427512447412e-21  0.0000000000000000e+00  0.0000000000000000e+00  5.3245642292448310e-21  1.0592464970983900e-20  1.5745814139334275e-20  2.0727978311998101e-20  2.5484205760818134e-20  2.9962230357605824e-20  3.4112846163292952e-20  3.7890446981381420e-20  4.1253525489860250e-20  4.4165126883400649e-20  4.6593252328090144e-20  4.8511207978092919e-20  4.9897895826945575e-20  5.0738043255167174e-20  5.1022368777270663e-20  5.0747682172267353e-20  4.9916917890754941e-20  4.8539101358374927e-20  4.6629248530679785e-20  4.4208199790235163e-20  4.1302390006262101e-20  3.7943557294903747e-20  3.4168393720629489e-20  3.0018141864558430e-20  2.5538141852844003e-20  2.0777334085039403e-20  1.5787723516434615e-20  1.0623811893731928e-20  5.3420047401498662e-21  0.0000000000000000e+00  0.0000000000000000e+00  4.7928375841979063e-21  9.5350002165390814e-21  1.4174323150404358e-20  1.8659773018666568e-20  2.2942014616435310e-20  2.6973955275816022e-20  3.0711261918049461e-20  3.4112846163292922e-20  3.7141312969027459e-20  3.9763368388032204e-20  4.1950182269179213e-20  4.3677702075446588e-20  4.4926914443283070e-20  4.5684051631641549e-20  4.5940740587006737e-20  4.5694092966429216e-20  4.4946735101343780e-20  4.3706777540599951e-20  4.1987724473126704e-20  3.9808323991761963e-20  3.7192360814179973e-20  3.4168393720629471e-20  3.0769440600291144e-20  2.7032614621536604e-20  2.2998715664483355e-20  1.8711781789481009e-20  1.4218606171572225e-20  9.5682255906833379e-21  4.8113871346340226e-21  0.0000000000000000e+00  0.0000000000000000e+00  4.2087893322267565e-21  8.3734326063249562e-21  1.2448048446264284e-20  1.6387755602380239e-20  2.0149172884232351e-20  2.3690896984932370e-20  2.6973955275815991e-20  2.9962230357605781e-20  3.2622852766833281e-20  3.4926558072483069e-20  3.6848004680199472e-20  3.8366048928985549e-20  3.9463974455709254e-20  4.0129673271267548e-20  4.0355776510346885e-20  4.0139733366218798e-20  3.9483837290703055e-20  3.8395199118226329e-20  3.6885667354366877e-20  3.4971696447052312e-20  3.2674164427478711e-20  3.0018141864558412e-20  2.7032614621536601e-20  2.3750163443132827e-20  2.0206603954192117e-20  1.6440591251361518e-20  1.2493193971170416e-20  8.4074435726440746e-21  4.2278655447915700e-21  0.0000000000000000e+00  0.0000000000000000e+00  3.5788668819703640e-21  7.1205782331332926e-21  1.0586023404193826e-20  1.3936957401850178e-20  1.7136426685190712e-20  2.0149172884232341e-20  2.2942014616435295e-20  2.5484205760818092e-20  2.7747767372989938e-20  2.9707789957084691e-20  3.1342702801834702e-20  3.2634507328474617e-20  3.3568971765277229e-20  3.4135784894761745e-20  3.4328667084603541e-20  3.4145437296792023e-20  3.3588035262861019e-20  3.2662498509724564e-20  3.1378894415208828e-20  2.9751207959355551e-20  2.7797186311807972e-20  2.5538141852843988e-20  2.2998715664483355e-20  2.0206603954192114e-20  1.7192250308706300e-20  1.3988507174515597e-20  1.0630270641357383e-20  7.1540936703582671e-21  3.5977846014647463e-21  0.0000000000000000e+00  0.0000000000000000e+00  2.9100368869570903e-21  5.7902806238247539e-21  8.6087997102585072e-21  1.1334398285785682e-20  1.3936957401850181e-20  1.6387755602380248e-20  1.8659773018666568e-20  2.0727978311998080e-20  2.2569595786188128e-20  2.4164349480709511e-20  2.5494681164529903e-20  2.6545939481312864e-20  2.7306537895060256e-20  2.7768079500218653e-20  2.7925447177263029e-20  2.7776857990524618e-20  2.7323881138439613e-20  2.6571419175742138e-20  2.5527652629371758e-20  2.4203948520586650e-20  2.2614733679198040e-20  2.0777334085039397e-20  1.87117817894