<?xml version="1.0"?>
<VTKFile type="UnstructuredGrid"  version="0.1"  >
<UnstructuredGrid>
<Piece  NumberOfPoints="961" NumberOfCells="1800">
<Points>
<DataArray  type="Float64"  NumberOfComponents="3"  format="ascii">-2 -2 0  -1.866666666666667 -2 0  -1.733333333333333 -2 0  -1.6 -2 0  -1.466666666666667 -2 0  -1.333333333333333 -2 0  -1.2 -2 0  -1.066666666666667 -2 0  -0.9333333333333333 -2 0  -0.8 -2 0  -0.6666666666666667 -2 0  -0.5333333333333334 -2 0  -0.3999999999999999 -2 0  -0.2666666666666666 -2 0  -0.1333333333333333 -2 0  0 -2 0  0.1333333333333333 -2 0  0.2666666666666666 -2 0  0.3999999999999999 -2 0  0.5333333333333332 -2 0  0.6666666666666665 -2 0  0.7999999999999998 -2 0  0.9333333333333331 -2 0  1.066666666666667 -2 0  1.2 -2 0  1.333333333333333 -2 0  1.466666666666667 -2 0  1.6 -2 0  1.733333333333333 -2 0  1.866666666666667 -2 0  2 -2 0  -2 -1.866666666666667 0  -1.866666666666667 -1.866666666666667 0  -1.733333333333333 -1.866666666666667 0  -1.6 -1.866666666666667 0  -1.466666666666667 -1.866666666666667 0  -1.333333333333333 -1.866666666666667 0  -1.2 -1.866666666666667 0  -1.066666666666667 -1.866666666666667 0  -0.9333333333333333 -1.866666666666667 0  -0.8 -1.866666666666667 0  -0.6666666666666667 -1.866666666666667 0  -0.5333333333333334 -1.866666666666667 0  -0.3999999999999999 -1.866666666666667 0  -0.2666666666666666 -1.866666666666667 0  -0.1333333333333333 -1.866666666666667 0  0 -1.866666666666667 0  0.1333333333333333 -1.866666666666667 0  0.2666666666666666 -1.866666666666667 0  0.3999999999999999 -1.866666666666667 0  0.5333333333333332 -1.866666666666667 0  0.6666666666666665 -1.866666666666667 0  0.7999999999999998 -1.866666666666667 0  0.9333333333333331 -1.866666666666667 0  1.066666666666667 -1.866666666666667 0  1.2 -1.866666666666667 0  1.333333333333333 -1.866666666666667 0  1.466666666666667 -1.866666666666667 0  1.6 -1.866666666666667 0  1.733333333333333 -1.866666666666667 0  1.866666666666667 -1.866666666666667 0  2 -1.866666666666667 0  -2 -1.733333333333333 0  -1.866666666666667 -1.733333333333333 0  -1.733333333333333 -1.733333333333333 0  -1.6 -1.733333333333333 0  -1.466666666666667 -1.733333333333333 0  -1.333333333333333 -1.733333333333333 0  -1.2 -1.733333333333333 0  -1.066666666666667 -1.733333333333333 0  -0.9333333333333333 -1.733333333333333 0  -0.8 -1.733333333333333 0  -0.6666666666666667 -1.733333333333333 0  -0.5333333333333334 -1.733333333333333 0  -0.3999999999999999 -1.733333333333333 0  -0.2666666666666666 -1.733333333333333 0  -0.1333333333333333 -1.733333333333333 0  0 -1.733333333333333 0  0.1333333333333333 -1.733333333333333 0  0.2666666666666666 -1.733333333333333 0  0.3999999999999999 -1.733333333333333 0  0.5333333333333332 -1.733333333333333 0  0.6666666666666665 -1.733333333333333 0  0.7999999999999998 -1.733333333333333 0  0.9333333333333331 -1.733333333333333 0  1.066666666666667 -1.733333333333333 0  1.2 -1.733333333333333 0  1.333333333333333 -1.733333333333333 0  1.466666666666667 -1.733333333333333 0  1.6 -1.733333333333333 0  1.733333333333333 -1.733333333333333 0  1.866666666666667 -1.733333333333333 0  2 -1.733333333333333 0  -2 -1.6 0  -1.866666666666667 -1.6 0  -1.733333333333333 -1.6 0  -1.6 -1.6 0  -1.466666666666667 -1.6 0  -1.333333333333333 -1.6 0  -1.2 -1.6 0  -1.066666666666667 -1.6 0  -0.9333333333333333 -1.6 0  -0.8 -1.6 0  -0.6666666666666667 -1.6 0  -0.5333333333333334 -1.6 0  -0.3999999999999999 -1.6 0  -0.2666666666666666 -1.6 0  -0.1333333333333333 -1.6 0  0 -1.6 0  0.1333333333333333 -1.6 0  0.2666666666666666 -1.6 0  0.3999999999999999 -1.6 0  0.5333333333333332 -1.6 0  0.6666666666666665 -1.6 0  0.7999999999999998 -1.6 0  0.9333333333333331 -1.6 0  1.066666666666667 -1.6 0  1.2 -1.6 0  1.333333333333333 -1.6 0  1.466666666666667 -1.6 0  1.6 -1.6 0  1.733333333333333 -1.6 0  1.866666666666667 -1.6 0  2 -1.6 0  -2 -1.466666666666667 0  -1.866666666666667 -1.466666666666667 0  -1.733333333333333 -1.466666666666667 0  -1.6 -1.466666666666667 0  -1.466666666666667 -1.466666666666667 0  -1.333333333333333 -1.466666666666667 0  -1.2 -1.466666666666667 0  -1.066666666666667 -1.466666666666667 0  -0.9333333333333333 -1.466666666666667 0  -0.8 -1.466666666666667 0  -0.6666666666666667 -1.466666666666667 0  -0.5333333333333334 -1.466666666666667 0  -0.3999999999999999 -1.466666666666667 0  -0.2666666666666666 -1.466666666666667 0  -0.1333333333333333 -1.466666666666667 0  0 -1.466666666666667 0  0.1333333333333333 -1.466666666666667 0  0.2666666666666666 -1.466666666666667 0  0.3999999999999999 -1.466666666666667 0  0.5333333333333332 -1.466666666666667 0  0.6666666666666665 -1.466666666666667 0  0.7999999999999998 -1.466666666666667 0  0.9333333333333331 -1.466666666666667 0  1.066666666666667 -1.466666666666667 0  1.2 -1.466666666666667 0  1.333333333333333 -1.466666666666667 0  1.466666666666667 -1.466666666666667 0  1.6 -1.466666666666667 0  1.733333333333333 -1.466666666666667 0  1.866666666666667 -1.466666666666667 0  2 -1.466666666666667 0  -2 -1.333333333333333 0  -1.866666666666667 -1.333333333333333 0  -1.733333333333333 -1.333333333333333 0  -1.6 -1.333333333333333 0  -1.466666666666667 -1.333333333333333 0  -1.333333333333333 -1.333333333333333 0  -1.2 -1.333333333333333 0  -1.066666666666667 -1.333333333333333 0  -0.9333333333333333 -1.333333333333333 0  -0.8 -1.333333333333333 0  -0.6666666666666667 -1.333333333333333 0  -0.5333333333333334 -1.333333333333333 0  -0.3999999999999999 -1.333333333333333 0  -0.2666666666666666 -1.333333333333333 0  -0.1333333333333333 -1.333333333333333 0  0 -1.333333333333333 0  0.1333333333333333 -1.333333333333333 0  0.2666666666666666 -1.333333333333333 0  0.3999999999999999 -1.333333333333333 0  0.5333333333333332 -1.333333333333333 0  0.6666666666666665 -1.333333333333333 0  0.7999999999999998 -1.333333333333333 0  0.9333333333333331 -1.333333333333333 0  1.066666666666667 -1.333333333333333 0  1.2 -1.333333333333333 0  1.333333333333333 -1.333333333333333 0  1.466666666666667 -1.333333333333333 0  1.6 -1.333333333333333 0  1.733333333333333 -1.333333333333333 0  1.866666666666667 -1.333333333333333 0  2 -1.333333333333333 0  -2 -1.2 0  -1.866666666666667 -1.2 0  -1.733333333333333 -1.2 0  -1.6 -1.2 0  -1.466666666666667 -1.2 0  -1.333333333333333 -1.2 0  -1.2 -1.2 0  -1.066666666666667 -1.2 0  -0.9333333333333333 -1.2 0  -0.8 -1.2 0  -0.6666666666666667 -1.2 0  -0.5333333333333334 -1.2 0  -0.3999999999999999 -1.2 0  -0.2666666666666666 -1.2 0  -0.1333333333333333 -1.2 0  0 -1.2 0  0.1333333333333333 -1.2 0  0.2666666666666666 -1.2 0  0.3999999999999999 -1.2 0  0.5333333333333332 -1.2 0  0.6666666666666665 -1.2 0  0.7999999999999998 -1.2 0  0.9333333333333331 -1.2 0  1.066666666666667 -1.2 0  1.2 -1.2 0  1.333333333333333 -1.2 0  1.466666666666667 -1.2 0  1.6 -1.2 0  1.733333333333333 -1.2 0  1.866666666666667 -1.2 0  2 -1.2 0  -2 -1.066666666666667 0  -1.866666666666667 -1.066666666666667 0  -1.733333333333333 -1.066666666666667 0  -1.6 -1.066666666666667 0  -1.466666666666667 -1.066666666666667 0  -1.333333333333333 -1.066666666666667 0  -1.2 -1.066666666666667 0  -1.066666666666667 -1.066666666666667 0  -0.9333333333333333 -1.066666666666667 0  -0.8 -1.066666666666667 0  -0.6666666666666667 -1.066666666666667 0  -0.5333333333333334 -1.066666666666667 0  -0.3999999999999999 -1.066666666666667 0  -0.2666666666666666 -1.066666666666667 0  -0.1333333333333333 -1.066666666666667 0  0 -1.066666666666667 0  0.1333333333333333 -1.066666666666667 0  0.2666666666666666 -1.066666666666667 0  0.3999999999999999 -1.066666666666667 0  0.5333333333333332 -1.066666666666667 0  0.6666666666666665 -1.066666666666667 0  0.7999999999999998 -1.066666666666667 0  0.9333333333333331 -1.066666666666667 0  1.066666666666667 -1.066666666666667 0  1.2 -1.066666666666667 0  1.333333333333333 -1.066666666666667 0  1.466666666666667 -1.066666666666667 0  1.6 -1.066666666666667 0  1.733333333333333 -1.066666666666667 0  1.866666666666667 -1.066666666666667 0  2 -1.066666666666667 0  -2 -0.9333333333333333 0  -1.866666666666667 -0.9333333333333333 0  -1.733333333333333 -0.9333333333333333 0  -1.6 -0.9333333333333333 0  -1.466666666666667 -0.9333333333333333 0  -1.333333333333333 -0.9333333333333333 0  -1.2 -0.9333333333333333 0  -1.066666666666667 -0.9333333333333333 0  -0.9333333333333333 -0.9333333333333333 0  -0.8 -0.9333333333333333 0  -0.6666666666666667 -0.9333333333333333 0  -0.5333333333333334 -0.9333333333333333 0  -0.3999999999999999 -0.9333333333333333 0  -0.2666666666666666 -0.9333333333333333 0  -0.1333333333333333 -0.9333333333333333 0  0 -0.9333333333333333 0  0.1333333333333333 -0.9333333333333333 0  0.2666666666666666 -0.9333333333333333 0  0.3999999999999999 -0.9333333333333333 0  0.5333333333333332 -0.9333333333333333 0  0.6666666666666665 -0.9333333333333333 0  0.7999999999999998 -0.9333333333333333 0  0.9333333333333331 -0.9333333333333333 0  1.066666666666667 -0.9333333333333333 0  1.2 -0.9333333333333333 0  1.333333333333333 -0.9333333333333333 0  1.466666666666667 -0.9333333333333333 0  1.6 -0.9333333333333333 0  1.733333333333333 -0.9333333333333333 0  1.866666666666667 -0.9333333333333333 0  2 -0.9333333333333333 0  -2 -0.8 0  -1.866666666666667 -0.8 0  -1.733333333333333 -0.8 0  -1.6 -0.8 0  -1.466666666666667 -0.8 0  -1.333333333333333 -0.8 0  -1.2 -0.8 0  -1.066666666666667 -0.8 0  -0.9333333333333333 -0.8 0  -0.8 -0.8 0  -0.6666666666666667 -0.8 0  -0.5333333333333334 -0.8 0  -0.3999999999999999 -0.8 0  -0.2666666666666666 -0.8 0  -0.1333333333333333 -0.8 0  0 -0.8 0  0.1333333333333333 -0.8 0  0.2666666666666666 -0.8 0  0.3999999999999999 -0.8 0  0.5333333333333332 -0.8 0  0.6666666666666665 -0.8 0  0.7999999999999998 -0.8 0  0.9333333333333331 -0.8 0  1.066666666666667 -0.8 0  1.2 -0.8 0  1.333333333333333 -0.8 0  1.466666666666667 -0.8 0  1.6 -0.8 0  1.733333333333333 -0.8 0  1.866666666666667 -0.8 0  2 -0.8 0  -2 -0.6666666666666667 0  -1.866666666666667 -0.
[...]
<PointData  Scalars="f_10422"> 
<DataArray  type="Float64"  Name="f_10422"  format="ascii">0.0000000000000000e+00  0.0000000000000000e+00  0.0000000000000000e+00  0.0000000000000000e+00  0.0000000000000000e+00  0.0000000000000000e+00  0.0000000000000000e+00  0.0000000000000000e+00  0.0000000000000000e+00  0.0000000000000000e+00  0.0000000000000000e+00  0.0000000000000000e+00  0.0000000000000000e+00  0.0000000000000000e+00  0.0000000000000000e+00  0.0000000000000000e+00  0.0000000000000000e+00  0.0000000000000000e+00  0.0000000000000000e+00  0.0000000000000000e+00  0.0000000000000000e+00  0.0000000000000000e+00  0.0000000000000000e+00  0.0000000000000000e+00  0.0000000000000000e+00  0.0000000000000000e+00  0.0000000000000000e+00  0.0000000000000000e+00  0.0000000000000000e+00  0.0000000000000000e+00  0.0000000000000000e+00  0.0000000000000000e+00  1.0573861040565258e-21  2.1012799222931526e-21  3.1210175342803875e-21  4.1057963051678198e-21  5.0450341692389827e-21  5.9285723018931763e-21  6.7468220542672601e-21  7.4908865959680891e-21  8.1526670123851810e-21  8.7249559614628291e-21  9.2015196861522459e-21  9.5771683382394189e-21  9.8478142778048067e-21  1.0010517947853564e-20  1.0063520961989601e-20  1.0006266132631195e-20  9.8394042846836907e-21  9.5647878334545371e-21  9.1854512505242861e-21  8.7055786956601656e-21  8.1304592588437422e-21  7.4664304421981198e-21  6.7208107372651454e-21  5.9018224669614785e-21  5.0185065830087708e-21  4.0806321541504707e-21  3.0986057515048084e-21  2.0833926537865331e-21  1.0464823222719981e-21  0.0000000000000000e+00  0.0000000000000000e+00  2.1012799222931534e-21  4.1769248255373153e-21  6.2049647716664767e-21  8.1636714928461409e-21  1.0031908803600854e-20  1.1789432886746341e-20  1.3417152606726815e-20  1.4897360444987225e-20  1.6213939311281537e-20  1.7352547050741090e-20  1.8300778757606805e-20  1.9048306260370782e-20  1.9586993887897134e-20  1.9910989621277758e-20  2.0016790863542638e-20  1.9903284260003203e-20  1.9571759245543723e-20  1.9025895265330515e-20  1.8271722903674862e-20  1.7317559458953833e-20  1.6173919822674594e-20  1.4853403867848218e-20  1.3370561949861230e-20  1.1741740624363930e-20  9.9849114024980090e-21  8.1194865264545155e-21  6.1661278195653706e-21  4.1465583993518926e-21  2.0833926537865335e-21  0.0000000000000000e+00  0.0000000000000000e+00  3.1210175342803875e-21  6.2049647716664767e-21  9.2187001333178496e-21  1.2129693981909131e-20  1.4906417296930976e-20  1.7518722616641577e-20  1.9938201399085918e-20  2.2138513951747714e-20  2.4095690634972251e-20  2.5788403100471820e-20  2.7198204023146842e-20  2.8309733622266528e-20  2.9110891295651419e-20  2.9592970863894295e-20  2.9750758194104214e-20  2.9582590310331551e-20  2.9090375478378105e-20  2.8279574161704984e-20  2.7159141173631462e-20  2.5741429794225620e-20  2.4042059077765558e-20  2.2079746053470549e-20  1.9876105031555347e-20  1.7455416793484066e-20  1.4844371107925314e-20  1.2071786809223397e-20  9.1683145514670524e-21  6.1661278195653729e-21  3.0986057515048106e-21  0.0000000000000000e+00  0.0000000000000000e+00  4.1057963051678168e-21  8.1636714928461364e-21  1.2129693981909131e-20  1.5960855493455179e-20  1.9615542476707492e-20  2.3054005120774088e-20  2.6238807753205200e-20  2.9135251833042399e-20  3.1711766205609995e-20  3.3940260700195162e-20  3.5796439765518937e-20  3.7260073216227307e-20  3.8315221518133950e-20  3.8950413434768667e-20  3.9158774303279124e-20  3.8938103697401444e-20  3.8290901758852516e-20  3.7224344026390577e-20  3.5750205155845783e-20  3.3884732498432496e-20  3.1648471084365391e-20  2.9066042141795109e-20  2.6165877865809679e-20  2.2979915734112274e-20  1.9543256224660300e-20  1.5893788254102982e-20  1.2071786809223401e-20  8.1194865264545201e-21  4.0806321541504737e-21  0.0000000000000000e+00  0.0000000000000000e+00  5.0450341692389789e-21  1.0031908803600849e-20  1.4906417296930967e-20  1.9615542476707486e-20  2.4108027539564376e-20  2.8334939048790004e-20  3.2250209289542225e-20  3.5811148397826753e-20  3.8978919053319418e-20  4.1718968019924305e-20  4.4001409771229908e-20  4.5801358137780439e-20  4.7099202523061023e-20  4.7880825832594472e-20  4.8137761875946029e-20  4.7867290642622810e-20  4.7072470517855308e-20  4.5762107187129946e-20  4.3950659671838818e-20  4.1658084634930443e-20  3.8909620787146961e-20  3.5735515902453392e-20  3.2170699603299020e-20  2.8254405681060249e-20  2.4029748231800509e-20  1.9543256224660303e-20  1.4844371107925323e-20  9.9849114024980181e-21  5.0185065830087738e-21  0.0000000000000000e+00  0.0000000000000000e+00  5.9285723018931696e-21  1.1789432886746326e-20  1.7518722616641550e-20  2.3054005120774061e-20  2.8334939048789980e-20  3.3303935440391242e-20  3.7906789748890902e-20  4.2093279109067363e-20  4.5817716802960307e-20  4.9039457075835632e-20  5.1723344438742356e-20  5.3840102436183957e-20  5.5366657632358560e-20  5.6286395326243735e-20  5.6589344269799805e-20  5.6272288444260276e-20  5.5338804747224516e-20  5.3799226253463154e-20  5.1670531527707600e-20  4.8976161279318979e-20  4.5745764446187728e-20  4.2014876565759649e-20  3.7824534017576735e-20  3.3220828378732144e-20  2.8254405681060249e-20  2.2979915734112271e-20  1.7455416793484060e-20  1.1741740624363935e-20  5.9018224669614823e-21  0.0000000000000000e+00  0.0000000000000000e+00  6.7468220542672510e-21  1.3417152606726794e-20  1.9938201399085897e-20  2.6238807753205167e-20  3.2250209289542201e-20  3.7906789748890890e-20  4.3146796262799827e-20  4.7913016737690657e-20  5.2153408813248994e-20  5.5821672780747037e-20  5.8877761767415395e-20  6.1288323383752012e-20  6.3027067904425048e-20  6.4075058927698270e-20  6.4420923344669931e-20  6.4060978352366514e-20  6.2999274162372716e-20  6.1247551983728312e-20  5.8825117787109694e-20  5.5758633276708262e-20  5.2081826394736704e-20  4.7835124546850577e-20  4.3065214547288127e-20  3.7824534017576723e-20  3.2170699603299008e-20  2.6165877865809658e-20  1.9876105031555323e-20  1.3370561949861224e-20  6.7208107372651431e-21  0.0000000000000000e+00  0.0000000000000000e+00  7.4908865959680846e-21  1.4897360444987213e-20  2.2138513951747702e-20  2.9135251833042375e-20  3.5811148397826729e-20  4.2093279109067363e-20  4.7913016737690657e-20  5.3206782578737921e-20  5.7916743756141913e-20  6.1991448407300010e-20  6.5386391399708129e-20  6.8064504138869126e-20  6.9996562962504523e-20  7.1161511577023353e-20  7.1546693977189796e-20  7.1147995296447515e-20  6.9969889058277864e-20  6.8025390330732575e-20  6.5335915317300830e-20  6.1931048936286907e-20  5.7848222935076425e-20  5.3132308040615789e-20  4.7835124546850583e-20  4.2014876565759643e-20  3.5735515902453362e-20  2.9066042141795085e-20  2.2079746053470531e-20  1.4853403867848206e-20  7.4664304421981183e-21  0.0000000000000000e+00  0.0000000000000000e+00  8.1526670123851764e-21  1.6213939311281534e-20  2.4095690634972239e-20  3.1711766205609977e-20  3.8978919053319388e-20  4.5817716802960289e-20  5.2153408813248976e-20  5.7916743756141925e-20  6.3044728217478453e-20  6.7481317599459529e-20  7.1178031438606035e-20  7.4094486172888838e-20  7.6198839372715223e-20  7.7468140477951817e-20  7.7888584147701173e-20  7.7455663422875782e-20  7.6174221014959731e-20  7.4058398157802486e-20  7.1131481581715338e-20  6.7425650278269326e-20  6.2981624806745713e-20  5.7848222935076545e-20  5.2081826394736818e-20  4.5745764446187806e-20  3.8909620787146997e-20  3.1648471084365427e-20  2.4042059077765582e-20  1.6173919822674612e-20  8.1304592588437527e-21  0.0000000000000000e+00  0.0000000000000000e+00  8.7249559614628171e-21  1.7352547050741069e-20  2.5788403100471784e-20  3.3940260700195143e-20  4.1718968019924287e-20  4.9039457075835632e-20  5.5821672780747025e-20  6.1991448407300022e-20  6.7481317599459553e-20  7.2231253760002295e-20  7.6189328474862110e-20  7.9312281574112266e-20  8.1565996448393252e-20  8.2925875320551530e-20  8.3377110301223410e-20  8.2914847222033770e-20  8.1544240429352215e-20  7.9280397923211689e-20  7.6148217427504632e-20  7.2182115165782165e-20  6.7425650278269471e-20  6.1931048936287160e-20  5.5758633276708503e-20  4.8976161279319136e-20  4.1658084634930546e-20  3.3884732498432580e-20  2.5741429794225680e-20  1.7317559458953878e-20  8.7055786956601912e-21  0.0000000000000000e+00  0.0000000000000000e+00  9.2015196861522324e-21  1.8300778757606778e-20  2.7198204023146800e-20  3.5796439765518907e-20  4.4001409771229860e-20  5.1723344438742338e-20  5.8877761767415359e-20  6.5386391399708153e-20  7.1178031438606059e-20  7.6189328474862134e-20  8.0365472109119430e-20  8.3660796216723703e-20  8.6039280255908919e-20  8.7474945044642524e-20  8.7952138612093178e-20  8.7465708953311890e-20  8.6021061766792307e-20  8.3634102520647698e-20  8.0331063460556797e-20  7.6148217427504752e-20  7.1131481581715615e-20  6.5335915317301167e-20  5.8825117787110031e-20  5.1670531527707852e-20  4.3950659671838998e-20  3.5750205155845897e-20  2.7159141173631552e-20  1.8271722903674928e-20  9.1854512505243237e-21  0.0000000000000000e+00  0.0000000000000000e+00  9.5771683382393993e-21  1.9048306260370737e-20  2.8309733622266450e-20  3.7260073216227217e-20  4.5801358137780325e-20  5.3840102436183873e-20  6.1288323383751964e-20  6.8064504138869114e-20  7.4094486172888802e-20  7.9312281574112254e-20  8.3660796216723655e-20  8.7092455770165549e-20  8.9569727606450554e-20  9.1065532822147762e-20  9.1563543812393413e-20  9.1058364101287792e-20  8.9555588431948363e-20  8.7071742435866846e-20  8.3634102520647710e-20  7.9280397923211797e-20  7.4058398157802714e-20  6.8025390330732900e-20  6.1247551983728649e-20  5.3799226253463376e-20  4.5762107187130066e-20  3.7224344026390691e-20  2.8279574161705080e-20  1.9025895265330584e-20  9.5647878334545807e-21  0.0000000000000000e+00  0.0000000000000000e+00  9.8478142778047842e-21  1.9586993887897076e-20  2.9110891295651334e-20  3.8315221518133836e-20  4.7099202523060854e-20  5.5366657632358451e-20  6.3027067904425060e-20  6.9996562962504571e-20  7.6198839372715223e-20  8.1565996448393167e-20  8.6039280255908859e-20  8.9569727606450530e-20  9.2118702922888488e-20  9.3658322055150444e-20  9.4171758366282994e-20  9.3653427709524895e-20  9.2109050249378680e-20  8.9555588431948279e-20  8.6021061766792186e-20  8.1544240429352251e-20  7.6174221014959912e-20  6.9969889058278165e-20  6.2999274162372993e-20  5.5338804747224709e-20  4.7072470517855446e-20  3.8290901758852618e-20  2.9090375478378189e-20  1.9571759245543786e-20  9.8394042846837238e-21  0.0000000000000000e+00  0.0000000000000000e+00  1.0010517947853529e-20  1.9910989621277689e-20  2.9592970863894193e-20  3.8950413434768534e-20  4.7880825832594310e-20  5.6286395326243639e-20  6.4075058927698210e-20  7.1161511577023329e-20  7.7468140477951805e-20  8.2925875320551433e-20  8.7474945044642427e-20  9.1065532822147762e-20  9.3658322055150444e-20  9.5224927385147487e-20  9.5748205973514244e-20  9.5222445628918436e-20  9.3653427709524726e-20  9.1058364101287636e-20  8.7465708953311698e-20  8.2914847222033782e-20  7.7455663422875926e-20  7.1147995296447792e-20  6.4060978352366755e-20  5.6272288444260432e-20  4.7867290642622919e-20  3.8938103697401546e-20  2.9582590310331635e-20  1.9903284260003266e-20  1.0006266132631228e-20  0.0000000000000000e+00  0.0000000000000000e+00  1.0063520961989563e-20  2.0016790863542557e-20  2.9750758194104100e-20  3.9158774303278974e-20  4.8137761875945878e-20  5.6589344269799696e-20  6.4420923344669835e-20  7.1546693977189700e-20  7.7888584147701077e-20  8.3377110301223265e-20  8.7952138612092986e-20  9.1563543812393245e-20  9.4171758366282826e-20  9.5748205973514111e-20  9.6275614652616098e-20  9.5748205973514172e-20  9.4171758366282826e-20  9.1563543812393245e-20  8.7952138612093034e-20  8.3377110301223446e-20  7.7888584147701305e-20  7.1546693977190061e-20  6.4420923344670124e-20  5.6589344269799973e-20  4.8137761875946149e-20  3.9158774303279221e-20  2.9750758194104293e-20  2.0016790863542692e-20  1.0063520961989631e-20  0.0000000000000000e+00  0.0000000000000000e+00  1.0006266132631155e-20  1.9903284260003131e-20  2.9582590310331443e-20  3.8938103697401300e-20  4.7867290642622636e-20  5.6272288444260131e-20  6.4060978352366370e-20  7.1147995296447359e-20  7.7455663422875565e-20  8.2914847222033530e-20  8.7465708953311602e-20  9.1058364101287551e-20  9.3653427709524582e-20  9.5222445628918195e-20  9.5748205973514075e-20  9.5224927385147391e-20  9.3658322055150312e-20  9.1065532822147678e-20  8.7474945044642451e-20  8.2925875320551554e-20  7.7468140477951961e-20  7.1161511577023606e-20  6.4075058927698499e-20  5.6286395326243916e-20  4.7880825832594598e-20  3.8950413434768769e-20  2.9592970863894373e-20  1.9910989621277813e-20  1.0010517947853590e-20  0.0000000000000000e+00  0.0000000000000000e+00  9.8394042846836501e-21  1.9571759245543648e-20  2.9090375478377997e-20  3.8290901758852384e-20  4.7072470517855182e-20  5.5338804747224372e-20  6.2999274162372584e-20  6.9969889058277684e-20  7.6174221014959491e-20  8.1544240429351902e-20  8.6021061766791994e-20  8.9555588431948159e-20  9.2109050249378427e-20  9.3653427709524461e-20  9.4171758366282657e-20  9.3658322055150264e-20  9.2118702922888307e-20  8.9569727606450361e-20  8.6039280255908811e-20  8.1565996448393264e-20  7.6198839372715343e-20  6.9996562962504799e-20  6.3027067904425313e-20  5.5366657632358752e-20  4.7099202523061161e-20  3.8315221518134070e-20  2.9110891295651503e-20  1.9586993887897188e-20  9.8478142778048353e-21  0.0000000000000000e+00  0.0000000000000000e+00  9.5647878334545009e-21  1.9025895265330448e-20  2.8279574161704881e-20  3.7224344026390462e-20  4.5762107187129807e-20  5.3799226253463039e-20  6.1247551983728191e-20  6.8025390330732394e-20  7.4058398157802257e-20  7.9280397923211412e-20  8.3634102520647445e-20  8.7071742435866605e-20  8.9555588431948002e-20  9.1058364101287383e-20  9.1563543812393016e-20  9.1065532822147498e-20  8.9569727606450301e-20  8.7092455770165404e-20  8.3660796216723571e-20  7.9312281574112278e-20  7.4094486172888983e-20  6.8064504138869367e-20  6.1288323383752216e-20  5.3840102436184120e-20  4.5801358137780578e-20  3.7260073216227416e-20  2.8309733622266600e-20  1.9048306260370833e-20  9.5771683382394459e-21  0.0000000000000000e+00  0.0000000000000000e+00  9.1854512505242545e-21  1.8271722903674799e-20  2.7159141173631372e-20  3.5750205155845693e-20  4.3950659671838733e-20  5.1670531527707533e-20  5.8825117787109586e-20  6.5335915317300673e-20  7.1131481581715157e-20  7.6148217427504379e-20  8.0331063460556448e-20  8.3634102520647445e-20  8.6021061766791849e-20  8.7465708953311445e-20  8.7952138612092793e-20  8.7474945044642199e-20  8.6039280255908642e-20  8.3660796216723474e-20  8.0365472109119310e-20  7.6189328474862134e-20  7.1178031438606191e-20  6.5386391399708430e-20  5.8877761767415660e-20  5.1723344438742572e-20  4.4001409771230076e-20  3.5796439765519069e-20  2.7198204023146938e-20  1.8300778757606868e-20  9.2015196861522775e-21  0.0000000000000000e+00  0.0000000000000000e+00  8.7055786956601340e-21  1.7317559458953773e-20  2.5741429794225533e-20  3.3884732498432382e-20  4.1658084634930317e-20  4.8976161279318865e-20  5.5758633276708154e-20  6.1931048936286739e-20  6.7425650278269074e-20  7.2182115165781864e-20  7.6148217427504439e-20  7.9280397923211472e-20  8.1544240429351866e-20  8.2914847222033445e-20  8.3377110301223133e-20  8.2925875320551265e-20  8.1565996448393035e-20  7.9312281574112122e-20  7.6189328474862050e-20  7.2231253760002380e-20  6.7481317599459746e-20  6.1991448407300371e-20  5.5821672780747362e-20  4.9039457075835872e-20  4.1718968019924485e-20  3.3940260700195306e-20  2.5788403100471922e-20  1.7352547050741159e-20  8.7249559614628667e-21  0.0000000000000000e+00  0.0000000000000000e+00  8.1304592588437046e-21  1.6173919822674527e-20  2.4042059077765465e-20  3.1648471084365265e-20  3.8909620787146811e-20  4.5745764446187590e-20  5.2081826394736590e-20  5.7848222935076269e-20  6.2981624806745436e-20  6.7425650278269098e-20  7.1131481581715241e-20  7.4058398157802377e-20  7.6174221014959527e-20  7.7455663422875553e-20  7.7888584147700980e-20  7.7468140477951612e-20  7.6198839372715078e-20  7.4094486172888706e-20  7.1178031438606011e-20  6.7481317599459673e-20  6.3044728217478718e-20  5.7916743756142263e-20  5.2153408813249301e-20  4.5817716802960536e-20  3.8978919053319592e-20  3.1711766205610145e-20  2.4095690634972356e-20  1.6213939311281609e-20  8.1526670123852171e-21  0.0000000000000000e+00  0.0000000000000000e+00  7.4664304421980822e-21  1.4853403867848140e-20  2.2079746053470441e-20  2.9066042141794964e-20  3.5735515902453230e-20  4.2014876565759481e-20  4.7835124546850372e-20  5.3132308040615530e-20  5.7848222935076256e-20  6.1931048936286799e-20  6.5335915317300794e-20  6.8025390330732539e-20  6.9969889058277792e-20  7.1147995296447407e-20  7.1546693977189688e-20  7.1161511577023257e-20  6.9996562962504486e-20  6.8064504138869066e-20  6.5386391399708165e-20  6.1991448407300167e-20  5.7916743756142190e-20  5.3206782578738228e-20  4.7913016737690940e-20  4.2093279109067561e-20  3.5811148397826909e-20  2.9135251833042537e-20  2.2138513951747823e-20  1.4897360444987292e-20  7.4908865959681252e-21  0.0000000000000000e+00  0.0000000000000000e+00  6.7208107372651070e-21  1.3370561949861155e-20  1.9876105031555230e-20  2.6165877865809532e-20  3.2170699603298863e-20  3.7824534017576561e-20  4.3065214547287904e-20  4.7835124546850324e-20  5.2081826394736536e-20  5.5758633276708178e-20  5.8825117787109706e-20  6.1247551983728288e-20  6.2999274162372644e-20  6.4060978352366394e-20  6.4420923344669811e-20  6.4075058927698198e-20  6.3027067904425036e-20  6.1288323383751927e-20  5.8877761767415371e-20  5.5821672780747110e-20  5.2153408813249162e-20  4.7913016737690904e-20  4.3146796262800037e-20  3.7906789748891064e-20  3.2250209289542340e-20  2.6238807753205294e-20  1.9938201399085990e-20  1.3417152606726857e-20  6.7468220542672841e-21  0.0000000000000000e+00  0.0000000000000000e+00  5.9018224669614469e-21  1.1741740624363866e-20  1.7455416793483967e-20  2.2979915734112148e-20  2.8254405681060111e-20  3.3220828378731988e-20  3.7824534017576537e-20  4.2014876565759427e-20  4.5745764446187566e-20  4.8976161279318883e-20  5.1670531527707588e-20  5.3799226253463105e-20  5.5338804747224420e-20  5.6272288444260155e-20  5.6589344269799696e-20  5.6286395326243639e-20  5.5366657632358476e-20  5.3840102436183867e-20  5.1723344438742344e-20  4.9039457075835704e-20  4.5817716802960433e-20  4.2093279109067537e-20  3.7906789748891058e-20  3.3303935440391386e-20  2.8334939048790107e-20  2.3054005120774157e-20  1.7518722616641628e-20  1.1789432886746376e-20  5.9285723018931944e-21  0.0000000000000000e+00  0.0000000000000000e+00  5.0185065830087422e-21  9.9849114024979609e-21  1.4844371107925245e-20  1.9543256224660210e-20  2.4029748231800403e-20  2.8254405681060123e-20  3.2170699603298863e-20  3.5735515902453200e-20  3.8909620787146811e-20  4.1658084634930347e-20  4.3950659671838782e-20  4.5762107187129862e-20  4.7072470517855254e-20  4.7867290642622738e-20  4.8137761875945914e-20  4.7880825832594376e-20  4.7099202523060950e-20  4.5801358137780367e-20  4.4001409771229890e-20  4.1718968019924383e-20  3.8978919053319550e-20  3.5811148397826903e-20  3.2250209289542352e-20  2.8334939048790101e-20  2.4108027539564466e-20  1.9615542476707555e-20  1.4906417296931024e-20  1.0031908803600894e-20  5.0450341692390000e-21  0.0000000000000000e+00  0.0000000000000000e+00  4.0806321541504511e-21  8.1194865264544794e-21  1.2071786809223341e-20  1.5893788254102919e-20  1.9543256224660222e-20  2.2979915734112178e-20  2.6165877865809550e-20  2.9066042141794964e-20  3.1648471084365289e-20  3.3884732498432418e-20  3.5750205155845741e-20  3.7224344026390529e-20  3.8290901758852444e-20  3.8938103697401378e-20  3.9158774303279046e-20  3.8950413434768601e-20  3.8315221518133902e-20  3.7260073216227253e-20  3.5796439765518931e-20  3.3940260700195222e-20  3.1711766205610109e-20  2.9135251833042531e-20  2.62388077532