<?xml version="1.0"?>
<VTKFile type="UnstructuredGrid"  version="0.1"  >
<UnstructuredGrid>
<Piece  NumberOfPoints="961" NumberOfCells="1800">
<Points>
<DataArray  type="Float64"  NumberOfComponents="3"  format="ascii">-2 -2 0  -1.866666666666667 -2 0  -1.733333333333333 -2 0  -1.6 -2 0  -1.466666666666667 -2 0  -1.333333333333333 -2 0  -1.2 -2 0  -1.066666666666667 -2 0  -0.9333333333333333 -2 0  -0.8 -2 0  -0.6666666666666667 -2 0  -0.5333333333333334 -2 0  -0.3999999999999999 -2 0  -0.2666666666666666 -2 0  -0.1333333333333333 -2 0  0 -2 0  0.1333333333333333 -2 0  0.2666666666666666 -2 0  0.3999999999999999 -2 0  0.5333333333333332 -2 0  0.6666666666666665 -2 0  0.7999999999999998 -2 0  0.9333333333333331 -2 0  1.066666666666667 -2 0  1.2 -2 0  1.333333333333333 -2 0  1.466666666666667 -2 0  1.6 -2 0  1.733333333333333 -2 0  1.866666666666667 -2 0  2 -2 0  -2 -1.866666666666667 0  -1.866666666666667 -1.866666666666667 0  -1.733333333333333 -1.866666666666667 0  -1.6 -1.866666666666667 0  -1.466666666666667 -1.866666666666667 0  -1.333333333333333 -1.866666666666667 0  -1.2 -1.866666666666667 0  -1.066666666666667 -1.866666666666667 0  -0.9333333333333333 -1.866666666666667 0  -0.8 -1.866666666666667 0  -0.6666666666666667 -1.866666666666667 0  -0.5333333333333334 -1.866666666666667 0  -0.3999999999999999 -1.866666666666667 0  -0.2666666666666666 -1.866666666666667 0  -0.1333333333333333 -1.866666666666667 0  0 -1.866666666666667 0  0.1333333333333333 -1.866666666666667 0  0.2666666666666666 -1.866666666666667 0  0.3999999999999999 -1.866666666666667 0  0.5333333333333332 -1.866666666666667 0  0.6666666666666665 -1.866666666666667 0  0.7999999999999998 -1.866666666666667 0  0.9333333333333331 -1.866666666666667 0  1.066666666666667 -1.866666666666667 0  1.2 -1.866666666666667 0  1.333333333333333 -1.866666666666667 0  1.466666666666667 -1.866666666666667 0  1.6 -1.866666666666667 0  1.733333333333333 -1.866666666666667 0  1.866666666666667 -1.866666666666667 0  2 -1.866666666666667 0  -2 -1.733333333333333 0  -1.866666666666667 -1.733333333333333 0  -1.733333333333333 -1.733333333333333 0  -1.6 -1.733333333333333 0  -1.466666666666667 -1.733333333333333 0  -1.333333333333333 -1.733333333333333 0  -1.2 -1.733333333333333 0  -1.066666666666667 -1.733333333333333 0  -0.9333333333333333 -1.733333333333333 0  -0.8 -1.733333333333333 0  -0.6666666666666667 -1.733333333333333 0  -0.5333333333333334 -1.733333333333333 0  -0.3999999999999999 -1.733333333333333 0  -0.2666666666666666 -1.733333333333333 0  -0.1333333333333333 -1.733333333333333 0  0 -1.733333333333333 0  0.1333333333333333 -1.733333333333333 0  0.2666666666666666 -1.733333333333333 0  0.3999999999999999 -1.733333333333333 0  0.5333333333333332 -1.733333333333333 0  0.6666666666666665 -1.733333333333333 0  0.7999999999999998 -1.733333333333333 0  0.9333333333333331 -1.733333333333333 0  1.066666666666667 -1.733333333333333 0  1.2 -1.733333333333333 0  1.333333333333333 -1.733333333333333 0  1.466666666666667 -1.733333333333333 0  1.6 -1.733333333333333 0  1.733333333333333 -1.733333333333333 0  1.866666666666667 -1.733333333333333 0  2 -1.733333333333333 0  -2 -1.6 0  -1.866666666666667 -1.6 0  -1.733333333333333 -1.6 0  -1.6 -1.6 0  -1.466666666666667 -1.6 0  -1.333333333333333 -1.6 0  -1.2 -1.6 0  -1.066666666666667 -1.6 0  -0.9333333333333333 -1.6 0  -0.8 -1.6 0  -0.6666666666666667 -1.6 0  -0.5333333333333334 -1.6 0  -0.3999999999999999 -1.6 0  -0.2666666666666666 -1.6 0  -0.1333333333333333 -1.6 0  0 -1.6 0  0.1333333333333333 -1.6 0  0.2666666666666666 -1.6 0  0.3999999999999999 -1.6 0  0.5333333333333332 -1.6 0  0.6666666666666665 -1.6 0  0.7999999999999998 -1.6 0  0.9333333333333331 -1.6 0  1.066666666666667 -1.6 0  1.2 -1.6 0  1.333333333333333 -1.6 0  1.466666666666667 -1.6 0  1.6 -1.6 0  1.733333333333333 -1.6 0  1.866666666666667 -1.6 0  2 -1.6 0  -2 -1.466666666666667 0  -1.866666666666667 -1.466666666666667 0  -1.733333333333333 -1.466666666666667 0  -1.6 -1.466666666666667 0  -1.466666666666667 -1.466666666666667 0  -1.333333333333333 -1.466666666666667 0  -1.2 -1.466666666666667 0  -1.066666666666667 -1.466666666666667 0  -0.9333333333333333 -1.466666666666667 0  -0.8 -1.466666666666667 0  -0.6666666666666667 -1.466666666666667 0  -0.5333333333333334 -1.466666666666667 0  -0.3999999999999999 -1.466666666666667 0  -0.2666666666666666 -1.466666666666667 0  -0.1333333333333333 -1.466666666666667 0  0 -1.466666666666667 0  0.1333333333333333 -1.466666666666667 0  0.2666666666666666 -1.466666666666667 0  0.3999999999999999 -1.466666666666667 0  0.5333333333333332 -1.466666666666667 0  0.6666666666666665 -1.466666666666667 0  0.7999999999999998 -1.466666666666667 0  0.9333333333333331 -1.466666666666667 0  1.066666666666667 -1.466666666666667 0  1.2 -1.466666666666667 0  1.333333333333333 -1.466666666666667 0  1.466666666666667 -1.466666666666667 0  1.6 -1.466666666666667 0  1.733333333333333 -1.466666666666667 0  1.866666666666667 -1.466666666666667 0  2 -1.466666666666667 0  -2 -1.333333333333333 0  -1.866666666666667 -1.333333333333333 0  -1.733333333333333 -1.333333333333333 0  -1.6 -1.333333333333333 0  -1.466666666666667 -1.333333333333333 0  -1.333333333333333 -1.333333333333333 0  -1.2 -1.333333333333333 0  -1.066666666666667 -1.333333333333333 0  -0.9333333333333333 -1.333333333333333 0  -0.8 -1.333333333333333 0  -0.6666666666666667 -1.333333333333333 0  -0.5333333333333334 -1.333333333333333 0  -0.3999999999999999 -1.333333333333333 0  -0.2666666666666666 -1.333333333333333 0  -0.1333333333333333 -1.333333333333333 0  0 -1.333333333333333 0  0.1333333333333333 -1.333333333333333 0  0.2666666666666666 -1.333333333333333 0  0.3999999999999999 -1.333333333333333 0  0.5333333333333332 -1.333333333333333 0  0.6666666666666665 -1.333333333333333 0  0.7999999999999998 -1.333333333333333 0  0.9333333333333331 -1.333333333333333 0  1.066666666666667 -1.333333333333333 0  1.2 -1.333333333333333 0  1.333333333333333 -1.333333333333333 0  1.466666666666667 -1.333333333333333 0  1.6 -1.333333333333333 0  1.733333333333333 -1.333333333333333 0  1.866666666666667 -1.333333333333333 0  2 -1.333333333333333 0  -2 -1.2 0  -1.866666666666667 -1.2 0  -1.733333333333333 -1.2 0  -1.6 -1.2 0  -1.466666666666667 -1.2 0  -1.333333333333333 -1.2 0  -1.2 -1.2 0  -1.066666666666667 -1.2 0  -0.9333333333333333 -1.2 0  -0.8 -1.2 0  -0.6666666666666667 -1.2 0  -0.5333333333333334 -1.2 0  -0.3999999999999999 -1.2 0  -0.2666666666666666 -1.2 0  -0.1333333333333333 -1.2 0  0 -1.2 0  0.1333333333333333 -1.2 0  0.2666666666666666 -1.2 0  0.3999999999999999 -1.2 0  0.5333333333333332 -1.2 0  0.6666666666666665 -1.2 0  0.7999999999999998 -1.2 0  0.9333333333333331 -1.2 0  1.066666666666667 -1.2 0  1.2 -1.2 0  1.333333333333333 -1.2 0  1.466666666666667 -1.2 0  1.6 -1.2 0  1.733333333333333 -1.2 0  1.866666666666667 -1.2 0  2 -1.2 0  -2 -1.066666666666667 0  -1.866666666666667 -1.066666666666667 0  -1.733333333333333 -1.066666666666667 0  -1.6 -1.066666666666667 0  -1.466666666666667 -1.066666666666667 0  -1.333333333333333 -1.066666666666667 0  -1.2 -1.066666666666667 0  -1.066666666666667 -1.066666666666667 0  -0.9333333333333333 -1.066666666666667 0  -0.8 -1.066666666666667 0  -0.6666666666666667 -1.066666666666667 0  -0.5333333333333334 -1.066666666666667 0  -0.3999999999999999 -1.066666666666667 0  -0.2666666666666666 -1.066666666666667 0  -0.1333333333333333 -1.066666666666667 0  0 -1.066666666666667 0  0.1333333333333333 -1.066666666666667 0  0.2666666666666666 -1.066666666666667 0  0.3999999999999999 -1.066666666666667 0  0.5333333333333332 -1.066666666666667 0  0.6666666666666665 -1.066666666666667 0  0.7999999999999998 -1.066666666666667 0  0.9333333333333331 -1.066666666666667 0  1.066666666666667 -1.066666666666667 0  1.2 -1.066666666666667 0  1.333333333333333 -1.066666666666667 0  1.466666666666667 -1.066666666666667 0  1.6 -1.066666666666667 0  1.733333333333333 -1.066666666666667 0  1.866666666666667 -1.066666666666667 0  2 -1.066666666666667 0  -2 -0.9333333333333333 0  -1.866666666666667 -0.9333333333333333 0  -1.733333333333333 -0.9333333333333333 0  -1.6 -0.9333333333333333 0  -1.466666666666667 -0.9333333333333333 0  -1.333333333333333 -0.9333333333333333 0  -1.2 -0.9333333333333333 0  -1.066666666666667 -0.9333333333333333 0  -0.9333333333333333 -0.9333333333333333 0  -0.8 -0.9333333333333333 0  -0.6666666666666667 -0.9333333333333333 0  -0.5333333333333334 -0.9333333333333333 0  -0.3999999999999999 -0.9333333333333333 0  -0.2666666666666666 -0.9333333333333333 0  -0.1333333333333333 -0.9333333333333333 0  0 -0.9333333333333333 0  0.1333333333333333 -0.9333333333333333 0  0.2666666666666666 -0.9333333333333333 0  0.3999999999999999 -0.9333333333333333 0  0.5333333333333332 -0.9333333333333333 0  0.6666666666666665 -0.9333333333333333 0  0.7999999999999998 -0.9333333333333333 0  0.9333333333333331 -0.9333333333333333 0  1.066666666666667 -0.9333333333333333 0  1.2 -0.9333333333333333 0  1.333333333333333 -0.9333333333333333 0  1.466666666666667 -0.9333333333333333 0  1.6 -0.9333333333333333 0  1.733333333333333 -0.9333333333333333 0  1.866666666666667 -0.9333333333333333 0  2 -0.9333333333333333 0  -2 -0.8 0  -1.866666666666667 -0.8 0  -1.733333333333333 -0.8 0  -1.6 -0.8 0  -1.466666666666667 -0.8 0  -1.333333333333333 -0.8 0  -1.2 -0.8 0  -1.066666666666667 -0.8 0  -0.9333333333333333 -0.8 0  -0.8 -0.8 0  -0.6666666666666667 -0.8 0  -0.5333333333333334 -0.8 0  -0.3999999999999999 -0.8 0  -0.2666666666666666 -0.8 0  -0.1333333333333333 -0.8 0  0 -0.8 0  0.1333333333333333 -0.8 0  0.2666666666666666 -0.8 0  0.3999999999999999 -0.8 0  0.5333333333333332 -0.8 0  0.6666666666666665 -0.8 0  0.7999999999999998 -0.8 0  0.9333333333333331 -0.8 0  1.066666666666667 -0.8 0  1.2 -0.8 0  1.333333333333333 -0.8 0  1.466666666666667 -0.8 0  1.6 -0.8 0  1.733333333333333 -0.8 0  1.866666666666667 -0.8 0  2 -0.8 0  -2 -0.6666666666666667 0  -1.866666666666667 -0.
[...]
<PointData  Scalars="f_10422"> 
<DataArray  type="Float64"  Name="f_10422"  format="ascii">0.0000000000000000e+00  0.0000000000000000e+00  0.0000000000000000e+00  0.0000000000000000e+00  0.0000000000000000e+00  0.0000000000000000e+00  0.0000000000000000e+00  0.0000000000000000e+00  0.0000000000000000e+00  0.0000000000000000e+00  0.0000000000000000e+00  0.0000000000000000e+00  0.0000000000000000e+00  0.0000000000000000e+00  0.0000000000000000e+00  0.0000000000000000e+00  0.0000000000000000e+00  0.0000000000000000e+00  0.0000000000000000e+00  0.0000000000000000e+00  0.0000000000000000e+00  0.0000000000000000e+00  0.0000000000000000e+00  0.0000000000000000e+00  0.0000000000000000e+00  0.0000000000000000e+00  0.0000000000000000e+00  0.0000000000000000e+00  0.0000000000000000e+00  0.0000000000000000e+00  0.0000000000000000e+00  0.0000000000000000e+00  1.9811435304657061e-21  3.9370075961637757e-21  5.8476120243954729e-21  7.6927167438530954e-21  9.4524949467578154e-21  1.1107912819862411e-20  1.2641004844622390e-20  1.4035101709886968e-20  1.5275029098325137e-20  1.6347283163961687e-20  1.7240184192640810e-20  1.7944008362407726e-20  1.8451096974750714e-20  1.8755942406389633e-20  1.8855250103122135e-20  1.8747976105160406e-20  1.8435339813389092e-20  1.7920811956795468e-20  1.7210077992864859e-20  1.6310977461970917e-20  1.5233420127783528e-20  1.3989280083675346e-20  1.2592269427918939e-20  1.1057793698556915e-20  9.4027922358585211e-21  7.6455685973090642e-21  5.8056207798711673e-21  3.9034935882307775e-21  1.9607139478778951e-21  0.0000000000000000e+00  0.0000000000000000e+00  3.9370075961637757e-21  7.8259848163395974e-21  1.1625768266666672e-20  1.5295647352326900e-20  1.8796020817967314e-20  2.2088959370501207e-20  2.5138693408313361e-20  2.7912045707217288e-20  3.0378818906997702e-20  3.2512141208203091e-20  3.4288770486980753e-20  3.5689355637726082e-20  3.6698653475215641e-20  3.7305699518872764e-20  3.7503931220447196e-20  3.7291262572349232e-20  3.6670109490174011e-20  3.5647365869121239e-20  3.4234330754116302e-20  3.2446587631463274e-20  3.0303837449758916e-20  2.7829687628095329e-20  2.5051400055322168e-20  2.1999602023445393e-20  1.8707965379384939e-20  1.5212861357717375e-20  1.1553002437701324e-20  7.7690895644067264e-21  3.9034935882307790e-21  0.0000000000000000e+00  0.0000000000000000e+00  5.8476120243954736e-21  1.1625768266666675e-20  1.7272373883447283e-20  2.2726480579418956e-20  2.7929014838517506e-20  3.2823491665753296e-20  3.7356684147241038e-20  4.1479241614173061e-20  4.5146253984652766e-20  4.8317759962552266e-20  5.0959196204703683e-20  5.3041784263851630e-20  5.4542852166503605e-20  5.5446087809690224e-20  5.5741721871113554e-20  5.5426638559832848e-20  5.4504413247638189e-20  5.2985276787590511e-20  5.0886007129017855e-20  4.8229749668661307e-20  4.5045768634806381e-20  4.1369132694617380e-20  3.7240338929229701e-20  3.2704880383168677e-20  2.7812763636173299e-20  2.2617984335621355e-20  1.7177970269545506e-20  1.1553002437701330e-20  5.8056207798711703e-21  0.0000000000000000e+00  0.0000000000000000e+00  7.6927167438530924e-21  1.5295647352326894e-20  2.2726480579418950e-20  2.9904635099939213e-20  3.6752142784190479e-20  4.3194527449457814e-20  4.9161648737363219e-20  5.4588494643613557e-20  5.9415912708577369e-20  6.3591272526233780e-20  6.7069053378984149e-20  6.9811351514660299e-20  7.1788302246265945e-20  7.2978412794737581e-20  7.3368802629697668e-20  7.2955348980627255e-20  7.1742736171983308e-20  6.9744408462333208e-20  6.6982427124405858e-20  6.3487233578437468e-20  5.9297321477349101e-20  5.4458821734603270e-20  4.9025005581152912e-20  4.3055711828089140e-20  3.6616705558341268e-20  2.9778976339303862e-20  2.2617984335621364e-20  1.5212861357717381e-20  7.6455685973090688e-21  0.0000000000000000e+00  0.0000000000000000e+00  9.4524949467578063e-21  1.8796020817967299e-20  2.7929014838517482e-20  3.6752142784190455e-20  4.5169368699916102e-20  5.3089009745156944e-20  6.0424752363424357e-20  6.7096611819204645e-20  7.3031821593621061e-20  7.8165641928996239e-20  8.2442078598549986e-20  8.5814504288544962e-20  8.8246176123067585e-20  8.9710643981121222e-20  9.0192045408732782e-20  8.9685284130123465e-20  8.8196090407956995e-20  8.5740962782138248e-20  8.2346992015991980e-20  7.8051569383659516e-20  7.2901982728542997e-20  6.6954904992978094e-20  6.0275781140986546e-20  5.2938120528954569e-20  4.5022702743601019e-20  3.6616705558341274e-20  2.7812763636173318e-20  1.8707965379384954e-20  9.4027922358585271e-21  0.0000000000000000e+00  0.0000000000000000e+00  1.1107912819862395e-20  2.2088959370501174e-20  3.2823491665753254e-20  4.3194527449457766e-20  5.3089009745156908e-20  6.2399038519283913e-20  7.1023054855394962e-20  7.8866960009300526e-20  8.5845154269250990e-20  9.1881482791028648e-20  9.6910077421809893e-20  1.0087608510443851e-19  1.0373627490568300e-19  1.0545951713004711e-19  1.0602712941215012e-19  1.0543308614341943e-19  1.0368408908351605e-19  1.0079949852491308e-19  9.6811125906729344e-20  9.1762890294594696e-20  8.5710342637459278e-20  7.8720063155965472e-20  7.0868938578179282e-20  6.2243327169465437e-20  5.2938120528954545e-20  4.3055711828089134e-20  3.2704880383168659e-20  2.1999602023445387e-20  1.1057793698556919e-20  0.0000000000000000e+00  0.0000000000000000e+00  1.2641004844622369e-20  2.5138693408313309e-20  3.7356684147240990e-20  4.9161648737363147e-20  6.0424752363424296e-20  7.1023054855394950e-20  8.0840854583235787e-20  8.9770957619750058e-20  9.7715856171851085e-20  1.0458880201383719e-19  1.1031476238085735e-19  1.1483124744972008e-19  1.1808900017131241e-19  1.2005254085695103e-19  1.2070056058169775e-19  1.2002615915908610e-19  1.1803692516101755e-19  1.1475485719352594e-19  1.1021612737837287e-19  1.0447068971303144e-19  9.7581737665104462e-20  8.9625016974828946e-20  8.0688001157916295e-20  7.0868938578179258e-20  6.0275781140986510e-20  4.9025005581152882e-20  3.7240338929229659e-20  2.5051400055322144e-20  1.2592269427918936e-20  0.0000000000000000e+00  0.0000000000000000e+00  1.4035101709886953e-20  2.7912045707217264e-20  4.1479241614173055e-20  5.4588494643613509e-20  6.7096611819204585e-20  7.8866960009300502e-20  8.9770957619750046e-20  9.9689482090193154e-20  1.0851417638072808e-19  1.1614863906870076e-19  1.2250948428872618e-19  1.2752725944833139e-19  1.3114721040497818e-19  1.3332988559063161e-19  1.3405157241554018e-19  1.3330456116872363e-19  1.3109723354923158e-19  1.2745397489537160e-19  1.2241491111084827e-19  1.1603547319600573e-19  1.0838579415512921e-19  9.9549944839969161e-20  8.9625016974828958e-20  7.8720063155965448e-20  6.6954904992978045e-20  5.4458821734603222e-20  4.1369132694617326e-20  2.7829687628095305e-20  1.3989280083675334e-20  0.0000000000000000e+00  0.0000000000000000e+00  1.5275029098325125e-20  3.0378818906997672e-20  4.5146253984652736e-20  5.9415912708577357e-20  7.3031821593621013e-20  8.5845154269250906e-20  9.7715856171851049e-20  1.0851417638072808e-19  1.1812208895015832e-19  1.2643458740055857e-19  1.3336083759271790e-19  1.3882517593285138e-19  1.4276794169424815e-19  1.4514613416642579e-19  1.4593388733724359e-19  1.4512275686191199e-19  1.4272181615882567e-19  1.3875756057707795e-19  1.3327362068352147e-19  1.2633028779532335e-19  1.1800385691226418e-19  1.0838579415512943e-19  9.7581737665104654e-20  8.5710342637459398e-20  7.2901982728543057e-20  5.9297321477349161e-20  4.5045768634806417e-20  3.0303837449758952e-20  1.5233420127783546e-20  0.0000000000000000e+00  0.0000000000000000e+00  1.6347283163961666e-20  3.2512141208203055e-20  4.8317759962552206e-20  6.3591272526233744e-20  7.8165641928996215e-20  9.1881482791028624e-20  1.0458880201383719e-19  1.1614863906870081e-19  1.2643458740055857e-19  1.3533417976183793e-19  1.4275012185182899e-19  1.4860136039637916e-19  1.5282397371195697e-19  1.5537187482344097e-19  1.5621731932025087e-19  1.5535121231809123e-19  1.5278321112182413e-19  1.4854162243645420e-19  1.4267309522438371e-19  1.3524211253335639e-19  1.2633028779532357e-19  1.1603547319600619e-19  1.0447068971303186e-19  9.1762890294594985e-20  7.8051569383659697e-20  6.3487233578437624e-20  4.8229749668661428e-20  3.2446587631463364e-20  1.6310977461970968e-20  0.0000000000000000e+00  0.0000000000000000e+00  1.7240184192640780e-20  3.4288770486980699e-20  5.0959196204703617e-20  6.7069053378984065e-20  8.2442078598549902e-20  9.6910077421809821e-20  1.1031476238085728e-19  1.2250948428872615e-19  1.3336083759271797e-19  1.4275012185182899e-19  1.5057464300977122e-19  1.5674883993889868e-19  1.6120522370304150e-19  1.6389511909433268e-19  1.6478920021125657e-19  1.6387781413589192e-19  1.6117108911236576e-19  1.5669882600067676e-19  1.5051017415470460e-19  1.4267309522438400e-19  1.3327362068352200e-19  1.2241491111084892e-19  1.1021612737837355e-19  9.6811125906729741e-20  8.2346992015992220e-20  6.6982427124406086e-20  5.0886007129018059e-20  3.4234330754116447e-20  1.7210077992864934e-20  0.0000000000000000e+00  0.0000000000000000e+00  1.7944008362407684e-20  3.5689355637725998e-20  5.3041784263851504e-20  6.9811351514660118e-20  8.5814504288544733e-20  1.0087608510443834e-19  1.1483124744971996e-19  1.2752725944833134e-19  1.3882517593285134e-19  1.4860136039637909e-19  1.5674883993889863e-19  1.6317847817320136e-19  1.6781995308272831e-19  1.7062252899567710e-19  1.7155561412668146e-19  1.7060909751128448e-19  1.6779346159207649e-19  1.6313966918178116e-19  1.5669882600067671e-19  1.4854162243645440e-19  1.3875756057707841e-19  1.2745397489537228e-19  1.1475485719352659e-19  1.0079949852491347e-19  8.5740962782138453e-20  6.9744408462333436e-20  5.2985276787590709e-20  3.5647365869121383e-20  1.7920811956795543e-20  0.0000000000000000e+00  0.0000000000000000e+00  1.8451096974750669e-20  3.6698653475215520e-20  5.4542852166503413e-20  7.1788302246265716e-20  8.8246176123067236e-20  1.0373627490568274e-19  1.1808900017131236e-19  1.3114721040497818e-19  1.4276794169424813e-19  1.5282397371195682e-19  1.6120522370304145e-19  1.6781995308272836e-19  1.7259577332294581e-19  1.7548044002280153e-19  1.7644242639864281e-19  1.7547126986146219e-19  1.7257768784631407e-19  1.6779346159207634e-19  1.6117108911236557e-19  1.5278321112182422e-19  1.4272181615882606e-19  1.3109723354923218e-19  1.1803692516101811e-19  1.0368408908351643e-19  8.8196090407957272e-20  7.1742736171983537e-20  5.4504413247638346e-20  3.6670109490174125e-20  1.8435339813389158e-20  0.0000000000000000e+00  0.0000000000000000e+00  1.8755942406389576e-20  3.7305699518872601e-20  5.5446087809689971e-20  7.2978412794737316e-20  8.9710643981120933e-20  1.0545951713004688e-19  1.2005254085695086e-19  1.3332988559063152e-19  1.4514613416642572e-19  1.5537187482344080e-19  1.6389511909433256e-19  1.7062252899567700e-19  1.7548044002280151e-19  1.7841566869888299e-19  1.7939609579736367e-19  1.7841101882190937e-19  1.7547126986146207e-19  1.7060909751128427e-19  1.6387781413589175e-19  1.5535121231809133e-19  1.4512275686191243e-19  1.3330456116872424e-19  1.2002615915908666e-19  1.0543308614341981e-19  8.9685284130123730e-20  7.2955348980627448e-20  5.5426638559832980e-20  3.7291262572349328e-20  1.8747976105160460e-20  0.0000000000000000e+00  0.0000000000000000e+00  1.8855250103122060e-20  3.7503931220447039e-20  5.5741721871113325e-20  7.3368802629697427e-20  9.0192045408732470e-20  1.0602712941214988e-19  1.2070056058169753e-19  1.3405157241553999e-19  1.4593388733724335e-19  1.5621731932025063e-19  1.6478920021125631e-19  1.7155561412668137e-19  1.7644242639864274e-19  1.7939609579736360e-19  1.8038426113120503e-19  1.7939609579736365e-19  1.7644242639864265e-19  1.7155561412668125e-19  1.6478920021125645e-19  1.5621731932025106e-19  1.4593388733724398e-19  1.3405157241554079e-19  1.2070056058169826e-19  1.0602712941215048e-19  9.0192045408733011e-20  7.3368802629697836e-20  5.5741721871113662e-20  3.7503931220447280e-20  1.8855250103122189e-20  0.0000000000000000e+00  0.0000000000000000e+00  1.8747976105160337e-20  3.7291262572349088e-20  5.5426638559832643e-20  7.2955348980627003e-20  8.9685284130123152e-20  1.0543308614341921e-19  1.2002615915908593e-19  1.3330456116872339e-19  1.4512275686191171e-19  1.5535121231809085e-19  1.6387781413589151e-19  1.7060909751128422e-19  1.7547126986146198e-19  1.7841101882190910e-19  1.7939609579736348e-19  1.7841566869888280e-19  1.7548044002280129e-19  1.7062252899567674e-19  1.6389511909433258e-19  1.5537187482344109e-19  1.4514613416642613e-19  1.3332988559063219e-19  1.2005254085695161e-19  1.0545951713004747e-19  8.9710643981121499e-20  7.2978412794737786e-20  5.5446087809690344e-20  3.7305699518872854e-20  1.8755942406389699e-20  0.0000000000000000e+00  0.0000000000000000e+00  1.8435339813389014e-20  3.6670109490173873e-20  5.4504413247637973e-20  7.1742736171983031e-20  8.8196090407956670e-20  1.0368408908351581e-19  1.1803692516101739e-19  1.3109723354923129e-19  1.4272181615882527e-19  1.5278321112182360e-19  1.6117108911236521e-19  1.6779346159207610e-19  1.7257768784631375e-19  1.7547126986146181e-19  1.7644242639864255e-19  1.7548044002280124e-19  1.7259577332294552e-19  1.6781995308272805e-19  1.6120522370304135e-19  1.5282397371195707e-19  1.4276794169424849e-19  1.3114721040497873e-19  1.1808900017131294e-19  1.0373627490568336e-19  8.8246176123067862e-20  7.1788302246266186e-20  5.4542852166503726e-20  3.6698653475215737e-20  1.8451096974750768e-20  0.0000000000000000e+00  0.0000000000000000e+00  1.7920811956795399e-20  3.5647365869121112e-20  5.2985276787590318e-20  6.9744408462332955e-20  8.5740962782137923e-20  1.0079949852491285e-19  1.1475485719352577e-19  1.2745397489537134e-19  1.3875756057707756e-19  1.4854162243645375e-19  1.5669882600067620e-19  1.6313966918178073e-19  1.6779346159207601e-19  1.7060909751128398e-19  1.7155561412668103e-19  1.7062252899567662e-19  1.6781995308272802e-19  1.6317847817320112e-19  1.5674883993889853e-19  1.4860136039637921e-19  1.3882517593285172e-19  1.2752725944833192e-19  1.1483124744972054e-19  1.0087608510443888e-19  8.5814504288545239e-20  6.9811351514660503e-20  5.3041784263851775e-20  3.5689355637726178e-20  1.7944008362407777e-20  0.0000000000000000e+00  0.0000000000000000e+00  1.7210077992864799e-20  3.4234330754116182e-20  5.0886007129017686e-20  6.6982427124405653e-20  8.2346992015991727e-20  9.6811125906729139e-20  1.1021612737837280e-19  1.2241491111084803e-19  1.3327362068352113e-19  1.4267309522438328e-19  1.5051017415470400e-19  1.5669882600067620e-19  1.6117108911236506e-19  1.6387781413589132e-19  1.6478920021125611e-19  1.6389511909433222e-19  1.6120522370304114e-19  1.5674883993889841e-19  1.5057464300977110e-19  1.4275012185182908e-19  1.3336083759271826e-19  1.2250948428872675e-19  1.1031476238085786e-19  9.6910077421810351e-20  8.2442078598550359e-20  6.7069053378984402e-20  5.0959196204703876e-20  3.4288770486980873e-20  1.7240184192640867e-20  0.0000000000000000e+00  0.0000000000000000e+00  1.6310977461970854e-20  3.2446587631463141e-20  4.8229749668661133e-20  6.3487233578437275e-20  7.8051569383659275e-20  9.1762890294594503e-20  1.0447068971303123e-19  1.1603547319600539e-19  1.2633028779532287e-19  1.3524211253335583e-19  1.4267309522438340e-19  1.4854162243645387e-19  1.5278321112182365e-19  1.5535121231809082e-19  1.5621731932025056e-19  1.5537187482344065e-19  1.5282397371195670e-19  1.4860136039637894e-19  1.4275012185182891e-19  1.3533417976183815e-19  1.2643458740055901e-19  1.1614863906870146e-19  1.0458880201383784e-19  9.1881482791029117e-20  7.8165641928996600e-20  6.3591272526234057e-20  4.8317759962552458e-20  3.2512141208203217e-20  1.6347283163961748e-20  0.0000000000000000e+00  0.0000000000000000e+00  1.5233420127783462e-20  3.0303837449758795e-20  4.5045768634806201e-20  5.9297321477348860e-20  7.2901982728542744e-20  8.5710342637459049e-20  9.7581737665104209e-20  1.0838579415512886e-19  1.1800385691226365e-19  1.2633028779532294e-19  1.3327362068352132e-19  1.3875756057707783e-19  1.4272181615882541e-19  1.4512275686191175e-19  1.4593388733724333e-19  1.4514613416642562e-19  1.4276794169424811e-19  1.3882517593285126e-19  1.3336083759271795e-19  1.2643458740055886e-19  1.1812208895015877e-19  1.0851417638072873e-19  9.7715856171851687e-20  8.5845154269251423e-20  7.3031821593621422e-20  5.9415912708577682e-20  4.5146253984652970e-20  3.0378818906997834e-20  1.5275029098325203e-20  0.0000000000000000e+00  0.0000000000000000e+00  1.3989280083675267e-20  2.7829687628095179e-20  4.1369132694617169e-20  5.4458821734603005e-20  6.6954904992977841e-20  7.8720063155965159e-20  8.9625016974828537e-20  9.9549944839968656e-20  1.0838579415512881e-19  1.1603547319600549e-19  1.2241491111084827e-19  1.2745397489537163e-19  1.3109723354923151e-19  1.3330456116872354e-19  1.3405157241554011e-19  1.3332988559063161e-19  1.3114721040497818e-19  1.2752725944833137e-19  1.2250948428872630e-19  1.1614863906870107e-19  1.0851417638072857e-19  9.9689482090193768e-20  8.9770957619750588e-20  7.8866960009300923e-20  6.7096611819204946e-20  5.4588494643613822e-20  4.1479241614173259e-20  2.7912045707217420e-20  1.4035101709887028e-20  0.0000000000000000e+00  0.0000000000000000e+00  1.2592269427918868e-20  2.5051400055322018e-20  3.7240338929229491e-20  4.9025005581152641e-20  6.0275781140986245e-20  7.0868938578178957e-20  8.0688001157915874e-20  8.9625016974828441e-20  9.7581737665104077e-20  1.0447068971303121e-19  1.1021612737837295e-19  1.1475485719352594e-19  1.1803692516101751e-19  1.2002615915908603e-19  1.2070056058169763e-19  1.2005254085695096e-19  1.1808900017131241e-19  1.1483124744971998e-19  1.1031476238085735e-19  1.0458880201383740e-19  9.7715856171851458e-20  8.9770957619750516e-20  8.0840854583236196e-20  7.1023054855395251e-20  6.0424752363424561e-20  4.9161648737363388e-20  3.7356684147241164e-20  2.5138693408313427e-20  1.2641004844622427e-20  0.0000000000000000e+00  0.0000000000000000e+00  1.1057793698556856e-20  2.1999602023445273e-20  3.2704880383168496e-20  4.3055711828088917e-20  5.2938120528954298e-20  6.2243327169465148e-20  7.0868938578178896e-20  7.8720063155965027e-20  8.5710342637458917e-20  9.1762890294594479e-20  9.6811125906729211e-20  1.0079949852491299e-19  1.0368408908351593e-19  1.0543308614341930e-19  1.0602712941214996e-19  1.0545951713004699e-19  1.0373627490568294e-19  1.0087608510443839e-19  9.6910077421809845e-20  9.1881482791028780e-20  8.5845154269251231e-20  7.8866960009300875e-20  7.1023054855395251e-20  6.2399038519284166e-20  5.3089009745157131e-20  4.3194527449457934e-20  3.2823491665753387e-20  2.2088959370501267e-20  1.1107912819862440e-20  0.0000000000000000e+00  0.0000000000000000e+00  9.4027922358584730e-21  1.8707965379384852e-20  2.7812763636173173e-20  3.6616705558341099e-20  4.5022702743600815e-20  5.2938120528954304e-20  6.0275781140986233e-20  6.6954904992977720e-20  7.2901982728542684e-20  7.8051569383659299e-20  8.2346992015991799e-20  8.5740962782138080e-20  8.8196090407956887e-20  8.9685284130123369e-20  9.0192045408732638e-20  8.9710643981121126e-20  8.8246176123067453e-20  8.5814504288544830e-20  8.2442078598549998e-20  7.8165641928996359e-20  7.3031821593621302e-20  6.7096611819204910e-20  6.0424752363424573e-20  5.3089009745157118e-20  4.5169368699916247e-20  3.6752142784190581e-20  2.7929014838517578e-20  1.8796020817967371e-20  9.4524949467578455e-21  0.0000000000000000e+00  0.0000000000000000e+00  7.6455685973090296e-21  1.5212861357717305e-20  2.2617984335621256e-20  2.9778976339303736e-20  3.6616705558341129e-20  4.3055711828088947e-20  4.9025005581152659e-20  5.4458821734602969e-20  5.9297321477348860e-20  6.3487233578437311e-20  6.6982427124405725e-20  6.9744408462333087e-20  7.1742736171983139e-20  7.2955348980627111e-20  7.3368802629697547e-20  7.2978412794737473e-20  7.1788302246265885e-20  6.9811351514660203e-20  6.7069053378984125e-20  6.3591272526233865e-20  5.9415912708577585e-20  5.4588494643613798e-20  4.91616487373