<?xml version="1.0"?>
<VTKFile type="UnstructuredGrid"  version="0.1"  >
<UnstructuredGrid>
<Piece  NumberOfPoints="99" NumberOfCells="160">
<Points>
<DataArray  type="Float64"  NumberOfComponents="3"  format="ascii">0 0 0  0.125 0 0  0.25 0 0  0.375 0 0  0.5 0 0  0.625 0 0  0.75 0 0  0.875 0 0  1 0 0  0 0.1 0  0.125 0.1 0  0.25 0.1 0  0.375 0.1 0  0.5 0.1 0  0.625 0.1 0  0.75 0.1 0  0.875 0.1 0  1 0.1 0  0 0.2 0  0.125 0.2 0  0.25 0.2 0  0.375 0.2 0  0.5 0.2 0  0.625 0.2 0  0.75 0.2 0  0.875 0.2 0  1 0.2 0  0 0.3 0  0.125 0.3 0  0.25 0.3 0  0.375 0.3 0  0.5 0.3 0  0.625 0.3 0  0.75 0.3 0  0.875 0.3 0  1 0.3 0  0 0.4 0  0.125 0.4 0  0.25 0.4 0  0.375 0.4 0  0.5 0.4 0  0.625 0.4 0  0.75 0.4 0  0.875 0.4 0  1 0.4 0  0 0.5 0  0.125 0.5 0  0.25 0.5 0  0.375 0.5 0  0.5 0.5 0  0.625 0.5 0  0.75 0.5 0  0.875 0.5 0  1 0.5 0  0 0.6 0  0.125 0.6 0  0.25 0.6 0  0.375 0.6 0  0.5 0.6 0  0.625 0.6 0  0.75 0.6 0  0.875 0.6 0  1 0.6 0  0 0.7 0  0.125 0.7 0  0.25 0.7 0  0.375 0.7 0  0.5 0.7 0  0.625 0.7 0  0.75 0.7 0  0.875 0.7 0  1 0.7 0  0 0.8 0  0.125 0.8 0  0.25 0.8 0  0.375 0.8 0  0.5 0.8 0  0.625 0.8 0  0.75 0.8 0  0.875 0.8 0  1 0.8 0  0 0.9 0  0.125 0.9 0  0.25 0.9 0  0.375 0.9 0  0.5 0.9 0  0.625 0.9 0  0.75 0.9 0  0.875 0.9 0  1 0.9 0  0 1 0  0.125 1 0  0.25 1 0  0.375 1 0  0.5 1 0  0.625 1 0  0.75 1 0  0.875 1 0  1 1 0  </DataArray>
</Points>
<Cells>
<DataArray  type="UInt32"  Name="connectivity"  format="ascii">0 1 10  0 9 10  1 2 11  1 10 11  2 3 12  2 11 12  3 4 13  3 12 13  4 5 14  4 13 14  5 6 15  5 14 15  6 7 16  6 15 16  7 8 17  7 16 17  9 10 19  9 18 19  10 11 20  10 19 20  11 12 21  11 20 21  12 13 22  12 21 22  13 14 23  13 22 23  14 15 24  14 23 24  15 16 25  15 24 25  16 17 26  16 25 26  18 19 28  18 27 28  19 20 29  19 28 29  20 21 30  20 29 30  21 22 31  21 30 31  22 23 32  22 31 32  23 24 33  23 32 33  24 25 34  24 33 34  25 26 35  25 34 35  27 28 37  27 36 37  28 29 38  28 37 38  29 30 39  29 38 39  30 31 40  30 39 40  31 32 41  31 40 41  32 33 42  32 41 42  33 34 43  33 42 43  34 35 44  34 43 44  36 37 46  36 45 46  37 38 47  37 46 47  38 39 48  38 47 48  39 40 49  39 48 49  40 41 50  40 49 50  41 42 51  41 50 51  42 43 52  42 51 52  43 44 53  43 52 53  45 46 55  45 54 55  46 47 56  46 55 56  47 48 57  47 56 57  48 49 58  48 57 58  49 50 59  49 58 59  50 51 60  50 59 60  51 52 61  51 60 61  52 53 62  52 61 62  54 55 64  54 63 64  55 56 65  55 64 65  56 57 66  56 65 66  57 58 67  57 66 67  58 59 68  58 67 68  59 60 69  59 68 69  60 61 70  60 69 70  61 62 71  61 70 71  63 64 73  63 72 73  64 65 74  64 73 74  65 66 75  65 74 75  66 67 76  66 75 76  67 68 77  67 76 77  68 69 78  68 77 78  69 70 79  69 78 79  70 71 80  70 79 80  72 73 82  72 81 82  73 74 83  73 82 83  74 75 84  74 83 84  75 76 85  75 84 85  76 77 86  76 85 86  77 78 87  77 86 87  78 79 88  78 87 88  79 80 89  79 88 89  81 82 91  81 90 91  82 83 92  82 91 92  83 84 93  83 92 93  84 85 94  84 93 94  85 86 95  85 94 95  86 87 96  86 95 96  87 88 97  87 96 97  88 89 98  88 97 98  </DataArray>
<DataArray  type="UInt32"  Name="offsets"  format="ascii">3 6 9 12 15 18 21 24 27 30 33 36 39 42 45 48 51 54 57 60 63 66 69 72 75 78 81 84 87 90 93 96 99 102 105 108 111 114 117 120 123 126 129 132 135 138 141 144 147 150 153 156 159 162 165 168 171 174 177 180 183 186 189 192 195 198 201 204 207 210 213 216 219 222 225 228 231 234 237 240 243 246 249 252 255 258 261 264 267 270 273 276 279 282 285 288 291 294 297 300 303 306 309 312 315 318 321 324 327 330 333 336 339 342 345 348 351 354 357 360 363 366 369 372 375 378 381 384 387 390 393 396 399 402 405 408 411 414 417 420 423 426 429 432 435 438 441 444 447 450 453 456 459 462 465 468 471 474 477 480 </DataArray>
<DataArray  type="UInt8"  Name="types"  format="ascii">5 5 5 5 5 5 5 5 5 5 5 5 5 5 5 5 5 5 5 5 5 5 5 5 5 5 5 5 5 5 5 5 5 5 5 5 5 5 5 5 5 5 5 5 5 5 5 5 5 5 5 5 5 5 5 5 5 5 5 5 5 5 5 5 5 5 5 5 5 5 5 5 5 5 5 5 5 5 5 5 5 5 5 5 5 5 5 5 5 5 5 5 5 5 5 5 5 5 5 5 5 5 5 5 5 5 5 5 5 5 5 5 5 5 5 5 5 5 5 5 5 5 5 5 5 5 5 5 5 5 5 5 5 5 5 5 5 5 5 5 5 5 5 5 5 5 5 5 5 5 5 5 5 5 5 5 5 5 5 5 </DataArray>
</Cells>
<PointData  Scalars="f_8"> 
<DataArray  type="Float64"  Name="f_8"  format="ascii">1.0000000000000000e+00  1.0156250000000000e+00  1.0625000000000000e+00  1.1406250000000000e+00  1.2500000000000000e+00  1.3906250000000000e+00  1.5625000000000000e+00  1.7656250000000000e+00  2.0000000000000000e+00  1.0200000000000000e+00  1.0356249999999083e+00  1.0824999999998524e+00  1.1606249999998153e+00  1.2699999999997955e+00  1.4106249999997966e+00  1.5824999999998186e+00  1.7856249999998766e+00  2.0200000000000000e+00  1.0800000000000001e+00  1.0956249999998420e+00  1.1424999999997367e+00  1.2206249999996686e+00  1.3299999999996339e+00  1.4706249999996366e+00  1.6424999999996841e+00  1.8456249999997951e+00  2.0800000000000001e+00  1.1799999999999999e+00  1.1956249999997941e+00  1.2424999999996482e+00  1.3206249999995570e+00  1.4299999999995103e+00  1.5706249999995159e+00  1.7424999999995829e+00  1.9456249999997355e+00  2.1800000000000002e+00  1.3200000000000001e+00  1.3356249999997525e+00  1.3824999999995831e+00  1.4606249999994745e+00  1.5699999999994227e+00  1.7106249999994314e+00  1.8824999999995142e+00  2.0856249999996943e+00  2.3200000000000003e+00  1.5000000000000000e+00  1.5156249999997258e+00  1.5624999999995395e+00  1.6406249999994256e+00  1.7499999999993670e+00  1.8906249999993781e+00  2.0624999999994658e+00  2.2656249999996634e+00  2.5000000000000000e+00  1.7200000000000000e+00  1.7356249999997135e+00  1.7824999999995252e+00  1.8606249999994091e+00  1.9699999999993547e+00  2.1106249999993656e+00  2.2824999999994544e+00  2.4856249999996534e+00  2.7199999999999998e+00  1.9800000000000002e+00  1.9956249999997253e+00  2.0424999999995506e+00  2.1206249999994466e+00  2.2299999999993929e+00  2.3706249999994022e+00  2.5424999999994822e+00  2.7456249999996665e+00  2.9800000000000000e+00  2.2800000000000002e+00  2.2956249999997587e+00  2.3424999999996197e+00  2.4206249999995384e+00  2.5299999999994971e+00  2.6706249999995024e+00  2.8424999999995579e+00  3.0456249999997067e+00  3.2800000000000002e+00  2.6200000000000001e+00  2.6356249999998398e+00  2.6824999999997616e+00  2.7606249999997137e+00  2.8699999999996892e+00  3.0106249999996897e+00  3.1824999999997226e+00  3.3856249999998056e+00  3.6199999999999997e+00  3.0000000000000000e+00  3.0156250000000000e+00  3.0625000000000000e+00  3.1406250000000000e+00  3.2500000000000000e+00  3.3906250000000000e+00  3.5625000000000000e+00  3.7656250000000000e+00  4.0000000000000000e+00  </DataArray> 
</PointData> 
</Piece>
</UnstructuredGrid>
</VTKFile>